+ 1 1 2 cbr 1000 ------- 1 1.0 2.0 0 0
- 1 1 2 cbr 1000 ------- 1 1.0 2.0 0 0
r 1.014 1 2 cbr 1000 ------- 1 1.0 2.0 0 0
+ 1.017857 1 2 cbr 1000 ------- 1 1.0 2.0 1 1
- 1.017857 1 2 cbr 1000 ------- 1 1.0 2.0 1 1
r 1.031857 1 2 cbr 1000 ------- 1 1.0 2.0 1 1
+ 1.035714 1 2 cbr 1000 ------- 1 1.0 2.0 2 2
- 1.035714 1 2 cbr 1000 ------- 1 1.0 2.0 2 2
r 1.049714 1 2 cbr 1000 ------- 1 1.0 2.0 2 2
+ 1.053571 1 2 cbr 1000 ------- 1 1.0 2.0 3 3
- 1.053571 1 2 cbr 1000 ------- 1 1.0 2.0 3 3
r 1.067571 1 2 cbr 1000 ------- 1 1.0 2.0 3 3
+ 1.071429 1 2 cbr 1000 ------- 1 1.0 2.0 4 4
- 1.071429 1 2 cbr 1000 ------- 1 1.0 2.0 4 4
r 1.085429 1 2 cbr 1000 ------- 1 1.0 2.0 4 4
+ 1.089286 1 2 cbr 1000 ------- 1 1.0 2.0 5 5
- 1.089286 1 2 cbr 1000 ------- 1 1.0 2.0 5 5
r 1.103286 1 2 cbr 1000 ------- 1 1.0 2.0 5 5
+ 1.107143 1 2 cbr 1000 ------- 1 1.0 2.0 6 6
- 1.107143 1 2 cbr 1000 ------- 1 1.0 2.0 6 6
r 1.121143 1 2 cbr 1000 ------- 1 1.0 2.0 6 6
+ 1.125 1 2 cbr 1000 ------- 1 1.0 2.0 7 7
- 1.125 1 2 cbr 1000 ------- 1 1.0 2.0 7 7
r 1.139 1 2 cbr 1000 ------- 1 1.0 2.0 7 7
+ 1.142857 1 2 cbr 1000 ------- 1 1.0 2.0 8 8
- 1.142857 1 2 cbr 1000 ------- 1 1.0 2.0 8 8
r 1.156857 1 2 cbr 1000 ------- 1 1.0 2.0 8 8
+ 1.160714 1 2 cbr 1000 ------- 1 1.0 2.0 9 9
- 1.160714 1 2 cbr 1000 ------- 1 1.0 2.0 9 9
r 1.174714 1 2 cbr 1000 ------- 1 1.0 2.0 9 9
+ 1.178571 1 2 cbr 1000 ------- 1 1.0 2.0 10 10
- 1.178571 1 2 cbr 1000 ------- 1 1.0 2.0 10 10
r 1.192571 1 2 cbr 1000 ------- 1 1.0 2.0 10 10
+ 1.196429 1 2 cbr 1000 ------- 1 1.0 2.0 11 11
- 1.196429 1 2 cbr 1000 ------- 1 1.0 2.0 11 11
r 1.210429 1 2 cbr 1000 ------- 1 1.0 2.0 11 11
+ 1.214286 1 2 cbr 1000 ------- 1 1.0 2.0 12 12
- 1.214286 1 2 cbr 1000 ------- 1 1.0 2.0 12 12
r 1.228286 1 2 cbr 1000 ------- 1 1.0 2.0 12 12
+ 1.232143 1 2 cbr 1000 ------- 1 1.0 2.0 13 13
- 1.232143 1 2 cbr 1000 ------- 1 1.0 2.0 13 13
r 1.246143 1 2 cbr 1000 ------- 1 1.0 2.0 13 13
+ 1.25 1 2 cbr 1000 ------- 1 1.0 2.0 14 14
- 1.25 1 2 cbr 1000 ------- 1 1.0 2.0 14 14
r 1.264 1 2 cbr 1000 ------- 1 1.0 2.0 14 14
+ 1.267857 1 2 cbr 1000 ------- 1 1.0 2.0 15 15
- 1.267857 1 2 cbr 1000 ------- 1 1.0 2.0 15 15
r 1.281857 1 2 cbr 1000 ------- 1 1.0 2.0 15 15
+ 1.285714 1 2 cbr 1000 ------- 1 1.0 2.0 16 16
- 1.285714 1 2 cbr 1000 ------- 1 1.0 2.0 16 16
r 1.299714 1 2 cbr 1000 ------- 1 1.0 2.0 16 16
+ 1.303571 1 2 cbr 1000 ------- 1 1.0 2.0 17 17
- 1.303571 1 2 cbr 1000 ------- 1 1.0 2.0 17 17
r 1.317571 1 2 cbr 1000 ------- 1 1.0 2.0 17 17
+ 1.321429 1 2 cbr 1000 ------- 1 1.0 2.0 18 18
- 1.321429 1 2 cbr 1000 ------- 1 1.0 2.0 18 18
r 1.335429 1 2 cbr 1000 ------- 1 1.0 2.0 18 18
+ 1.339286 1 2 cbr 1000 ------- 1 1.0 2.0 19 19
- 1.339286 1 2 cbr 1000 ------- 1 1.0 2.0 19 19
r 1.353286 1 2 cbr 1000 ------- 1 1.0 2.0 19 19
+ 1.357143 1 2 cbr 1000 ------- 1 1.0 2.0 20 20
- 1.357143 1 2 cbr 1000 ------- 1 1.0 2.0 20 20
r 1.371143 1 2 cbr 1000 ------- 1 1.0 2.0 20 20
+ 1.375 1 2 cbr 1000 ------- 1 1.0 2.0 21 21
- 1.375 1 2 cbr 1000 ------- 1 1.0 2.0 21 21
r 1.389 1 2 cbr 1000 ------- 1 1.0 2.0 21 21
+ 1.392857 1 2 cbr 1000 ------- 1 1.0 2.0 22 22
- 1.392857 1 2 cbr 1000 ------- 1 1.0 2.0 22 22
r 1.406857 1 2 cbr 1000 ------- 1 1.0 2.0 22 22
+ 1.410714 1 2 cbr 1000 ------- 1 1.0 2.0 23 23
- 1.410714 1 2 cbr 1000 ------- 1 1.0 2.0 23 23
r 1.424714 1 2 cbr 1000 ------- 1 1.0 2.0 23 23
+ 1.428571 1 2 cbr 1000 ------- 1 1.0 2.0 24 24
- 1.428571 1 2 cbr 1000 ------- 1 1.0 2.0 24 24
r 1.442571 1 2 cbr 1000 ------- 1 1.0 2.0 24 24
+ 1.446429 1 2 cbr 1000 ------- 1 1.0 2.0 25 25
- 1.446429 1 2 cbr 1000 ------- 1 1.0 2.0 25 25
r 1.460429 1 2 cbr 1000 ------- 1 1.0 2.0 25 25
+ 1.464286 1 2 cbr 1000 ------- 1 1.0 2.0 26 26
- 1.464286 1 2 cbr 1000 ------- 1 1.0 2.0 26 26
r 1.478286 1 2 cbr 1000 ------- 1 1.0 2.0 26 26
+ 1.482143 1 2 cbr 1000 ------- 1 1.0 2.0 27 27
- 1.482143 1 2 cbr 1000 ------- 1 1.0 2.0 27 27
r 1.496143 1 2 cbr 1000 ------- 1 1.0 2.0 27 27
+ 1.5 1 2 cbr 1000 ------- 1 1.0 2.0 28 28
- 1.5 1 2 cbr 1000 ------- 1 1.0 2.0 28 28
r 1.514 1 2 cbr 1000 ------- 1 1.0 2.0 28 28
+ 1.517857 1 2 cbr 1000 ------- 1 1.0 2.0 29 29
- 1.517857 1 2 cbr 1000 ------- 1 1.0 2.0 29 29
r 1.531857 1 2 cbr 1000 ------- 1 1.0 2.0 29 29
+ 1.535714 1 2 cbr 1000 ------- 1 1.0 2.0 30 30
- 1.535714 1 2 cbr 1000 ------- 1 1.0 2.0 30 30
r 1.549714 1 2 cbr 1000 ------- 1 1.0 2.0 30 30
+ 1.553571 1 2 cbr 1000 ------- 1 1.0 2.0 31 31
- 1.553571 1 2 cbr 1000 ------- 1 1.0 2.0 31 31
r 1.567571 1 2 cbr 1000 ------- 1 1.0 2.0 31 31
+ 1.571429 1 2 cbr 1000 ------- 1 1.0 2.0 32 32
- 1.571429 1 2 cbr 1000 ------- 1 1.0 2.0 32 32
r 1.585429 1 2 cbr 1000 ------- 1 1.0 2.0 32 32
+ 1.589286 1 2 cbr 1000 ------- 1 1.0 2.0 33 33
- 1.589286 1 2 cbr 1000 ------- 1 1.0 2.0 33 33
r 1.603286 1 2 cbr 1000 ------- 1 1.0 2.0 33 33
+ 1.607143 1 2 cbr 1000 ------- 1 1.0 2.0 34 34
- 1.607143 1 2 cbr 1000 ------- 1 1.0 2.0 34 34
r 1.621143 1 2 cbr 1000 ------- 1 1.0 2.0 34 34
+ 1.625 1 2 cbr 1000 ------- 1 1.0 2.0 35 35
- 1.625 1 2 cbr 1000 ------- 1 1.0 2.0 35 35
r 1.639 1 2 cbr 1000 ------- 1 1.0 2.0 35 35
+ 1.642857 1 2 cbr 1000 ------- 1 1.0 2.0 36 36
- 1.642857 1 2 cbr 1000 ------- 1 1.0 2.0 36 36
r 1.656857 1 2 cbr 1000 ------- 1 1.0 2.0 36 36
+ 1.660714 1 2 cbr 1000 ------- 1 1.0 2.0 37 37
- 1.660714 1 2 cbr 1000 ------- 1 1.0 2.0 37 37
r 1.674714 1 2 cbr 1000 ------- 1 1.0 2.0 37 37
+ 1.678571 1 2 cbr 1000 ------- 1 1.0 2.0 38 38
- 1.678571 1 2 cbr 1000 ------- 1 1.0 2.0 38 38
r 1.692571 1 2 cbr 1000 ------- 1 1.0 2.0 38 38
+ 1.696429 1 2 cbr 1000 ------- 1 1.0 2.0 39 39
- 1.696429 1 2 cbr 1000 ------- 1 1.0 2.0 39 39
r 1.710429 1 2 cbr 1000 ------- 1 1.0 2.0 39 39
+ 1.714286 1 2 cbr 1000 ------- 1 1.0 2.0 40 40
- 1.714286 1 2 cbr 1000 ------- 1 1.0 2.0 40 40
r 1.728286 1 2 cbr 1000 ------- 1 1.0 2.0 40 40
+ 1.732143 1 2 cbr 1000 ------- 1 1.0 2.0 41 41
- 1.732143 1 2 cbr 1000 ------- 1 1.0 2.0 41 41
r 1.746143 1 2 cbr 1000 ------- 1 1.0 2.0 41 41
+ 1.75 1 2 cbr 1000 ------- 1 1.0 2.0 42 42
- 1.75 1 2 cbr 1000 ------- 1 1.0 2.0 42 42
r 1.764 1 2 cbr 1000 ------- 1 1.0 2.0 42 42
+ 1.767857 1 2 cbr 1000 ------- 1 1.0 2.0 43 43
- 1.767857 1 2 cbr 1000 ------- 1 1.0 2.0 43 43
r 1.781857 1 2 cbr 1000 ------- 1 1.0 2.0 43 43
+ 1.785714 1 2 cbr 1000 ------- 1 1.0 2.0 44 44
- 1.785714 1 2 cbr 1000 ------- 1 1.0 2.0 44 44
r 1.799714 1 2 cbr 1000 ------- 1 1.0 2.0 44 44
+ 1.803571 1 2 cbr 1000 ------- 1 1.0 2.0 45 45
- 1.803571 1 2 cbr 1000 ------- 1 1.0 2.0 45 45
r 1.817571 1 2 cbr 1000 ------- 1 1.0 2.0 45 45
+ 1.821429 1 2 cbr 1000 ------- 1 1.0 2.0 46 46
- 1.821429 1 2 cbr 1000 ------- 1 1.0 2.0 46 46
r 1.835429 1 2 cbr 1000 ------- 1 1.0 2.0 46 46
+ 1.839286 1 2 cbr 1000 ------- 1 1.0 2.0 47 47
- 1.839286 1 2 cbr 1000 ------- 1 1.0 2.0 47 47
r 1.853286 1 2 cbr 1000 ------- 1 1.0 2.0 47 47
+ 1.857143 1 2 cbr 1000 ------- 1 1.0 2.0 48 48
- 1.857143 1 2 cbr 1000 ------- 1 1.0 2.0 48 48
r 1.871143 1 2 cbr 1000 ------- 1 1.0 2.0 48 48
+ 1.875 1 2 cbr 1000 ------- 1 1.0 2.0 49 49
- 1.875 1 2 cbr 1000 ------- 1 1.0 2.0 49 49
r 1.889 1 2 cbr 1000 ------- 1 1.0 2.0 49 49
+ 1.892857 1 2 cbr 1000 ------- 1 1.0 2.0 50 50
- 1.892857 1 2 cbr 1000 ------- 1 1.0 2.0 50 50
r 1.906857 1 2 cbr 1000 ------- 1 1.0 2.0 50 50
+ 1.910714 1 2 cbr 1000 ------- 1 1.0 2.0 51 51
- 1.910714 1 2 cbr 1000 ------- 1 1.0 2.0 51 51
r 1.924714 1 2 cbr 1000 ------- 1 1.0 2.0 51 51
+ 1.928571 1 2 cbr 1000 ------- 1 1.0 2.0 52 52
- 1.928571 1 2 cbr 1000 ------- 1 1.0 2.0 52 52
r 1.942571 1 2 cbr 1000 ------- 1 1.0 2.0 52 52
+ 1.946429 1 2 cbr 1000 ------- 1 1.0 2.0 53 53
- 1.946429 1 2 cbr 1000 ------- 1 1.0 2.0 53 53
r 1.960429 1 2 cbr 1000 ------- 1 1.0 2.0 53 53
+ 1.964286 1 2 cbr 1000 ------- 1 1.0 2.0 54 54
- 1.964286 1 2 cbr 1000 ------- 1 1.0 2.0 54 54
r 1.978286 1 2 cbr 1000 ------- 1 1.0 2.0 54 54
+ 1.982143 1 2 cbr 1000 ------- 1 1.0 2.0 55 55
- 1.982143 1 2 cbr 1000 ------- 1 1.0 2.0 55 55
r 1.996143 1 2 cbr 1000 ------- 1 1.0 2.0 55 55
+ 2 1 2 cbr 1000 ------- 1 1.0 2.0 56 56
- 2 1 2 cbr 1000 ------- 1 1.0 2.0 56 56
+ 2 0 2 tcp 40 ------- 1 0.0 2.0 0 57
- 2 0 2 tcp 40 ------- 1 0.0 2.0 0 57
r 2.01016 0 2 tcp 40 ------- 1 0.0 2.0 0 57
r 2.014 1 2 cbr 1000 ------- 1 1.0 2.0 56 56
+ 2.017857 1 2 cbr 1000 ------- 1 1.0 2.0 57 58
- 2.017857 1 2 cbr 1000 ------- 1 1.0 2.0 57 58
r 2.031857 1 2 cbr 1000 ------- 1 1.0 2.0 57 58
+ 2.035714 1 2 cbr 1000 ------- 1 1.0 2.0 58 59
- 2.035714 1 2 cbr 1000 ------- 1 1.0 2.0 58 59
r 2.049714 1 2 cbr 1000 ------- 1 1.0 2.0 58 59
+ 2.053571 1 2 cbr 1000 ------- 1 1.0 2.0 59 60
- 2.053571 1 2 cbr 1000 ------- 1 1.0 2.0 59 60
r 2.067571 1 2 cbr 1000 ------- 1 1.0 2.0 59 60
+ 2.071429 1 2 cbr 1000 ------- 1 1.0 2.0 60 61
- 2.071429 1 2 cbr 1000 ------- 1 1.0 2.0 60 61
r 2.085429 1 2 cbr 1000 ------- 1 1.0 2.0 60 61
+ 2.089286 1 2 cbr 1000 ------- 1 1.0 2.0 61 62
- 2.089286 1 2 cbr 1000 ------- 1 1.0 2.0 61 62
r 2.103286 1 2 cbr 1000 ------- 1 1.0 2.0 61 62
+ 2.107143 1 2 cbr 1000 ------- 1 1.0 2.0 62 63
- 2.107143 1 2 cbr 1000 ------- 1 1.0 2.0 62 63
r 2.121143 1 2 cbr 1000 ------- 1 1.0 2.0 62 63
+ 2.125 1 2 cbr 1000 ------- 1 1.0 2.0 63 64
- 2.125 1 2 cbr 1000 ------- 1 1.0 2.0 63 64
r 2.139 1 2 cbr 1000 ------- 1 1.0 2.0 63 64
+ 2.142857 1 2 cbr 1000 ------- 1 1.0 2.0 64 65
- 2.142857 1 2 cbr 1000 ------- 1 1.0 2.0 64 65
r 2.156857 1 2 cbr 1000 ------- 1 1.0 2.0 64 65
+ 2.160714 1 2 cbr 1000 ------- 1 1.0 2.0 65 66
- 2.160714 1 2 cbr 1000 ------- 1 1.0 2.0 65 66
r 2.174714 1 2 cbr 1000 ------- 1 1.0 2.0 65 66
+ 2.178571 1 2 cbr 1000 ------- 1 1.0 2.0 66 67
- 2.178571 1 2 cbr 1000 ------- 1 1.0 2.0 66 67
r 2.192571 1 2 cbr 1000 ------- 1 1.0 2.0 66 67
+ 2.196429 1 2 cbr 1000 ------- 1 1.0 2.0 67 68
- 2.196429 1 2 cbr 1000 ------- 1 1.0 2.0 67 68
r 2.210429 1 2 cbr 1000 ------- 1 1.0 2.0 67 68
+ 2.214286 1 2 cbr 1000 ------- 1 1.0 2.0 68 69
- 2.214286 1 2 cbr 1000 ------- 1 1.0 2.0 68 69
r 2.228286 1 2 cbr 1000 ------- 1 1.0 2.0 68 69
+ 2.232143 1 2 cbr 1000 ------- 1 1.0 2.0 69 70
- 2.232143 1 2 cbr 1000 ------- 1 1.0 2.0 69 70
r 2.246143 1 2 cbr 1000 ------- 1 1.0 2.0 69 70
+ 2.25 1 2 cbr 1000 ------- 1 1.0 2.0 70 71
- 2.25 1 2 cbr 1000 ------- 1 1.0 2.0 70 71
r 2.264 1 2 cbr 1000 ------- 1 1.0 2.0 70 71
+ 2.267857 1 2 cbr 1000 ------- 1 1.0 2.0 71 72
- 2.267857 1 2 cbr 1000 ------- 1 1.0 2.0 71 72
r 2.281857 1 2 cbr 1000 ------- 1 1.0 2.0 71 72
+ 2.285714 1 2 cbr 1000 ------- 1 1.0 2.0 72 73
- 2.285714 1 2 cbr 1000 ------- 1 1.0 2.0 72 73
r 2.299714 1 2 cbr 1000 ------- 1 1.0 2.0 72 73
+ 2.303571 1 2 cbr 1000 ------- 1 1.0 2.0 73 74
- 2.303571 1 2 cbr 1000 ------- 1 1.0 2.0 73 74
r 2.317571 1 2 cbr 1000 ------- 1 1.0 2.0 73 74
+ 2.321429 1 2 cbr 1000 ------- 1 1.0 2.0 74 75
- 2.321429 1 2 cbr 1000 ------- 1 1.0 2.0 74 75
r 2.335429 1 2 cbr 1000 ------- 1 1.0 2.0 74 75
+ 2.339286 1 2 cbr 1000 ------- 1 1.0 2.0 75 76
- 2.339286 1 2 cbr 1000 ------- 1 1.0 2.0 75 76
r 2.353286 1 2 cbr 1000 ------- 1 1.0 2.0 75 76
+ 2.357143 1 2 cbr 1000 ------- 1 1.0 2.0 76 77
- 2.357143 1 2 cbr 1000 ------- 1 1.0 2.0 76 77
r 2.371143 1 2 cbr 1000 ------- 1 1.0 2.0 76 77
+ 2.375 1 2 cbr 1000 ------- 1 1.0 2.0 77 78
- 2.375 1 2 cbr 1000 ------- 1 1.0 2.0 77 78
r 2.389 1 2 cbr 1000 ------- 1 1.0 2.0 77 78
+ 2.392857 1 2 cbr 1000 ------- 1 1.0 2.0 78 79
- 2.392857 1 2 cbr 1000 ------- 1 1.0 2.0 78 79
r 2.406857 1 2 cbr 1000 ------- 1 1.0 2.0 78 79
+ 2.410714 1 2 cbr 1000 ------- 1 1.0 2.0 79 80
- 2.410714 1 2 cbr 1000 ------- 1 1.0 2.0 79 80
r 2.424714 1 2 cbr 1000 ------- 1 1.0 2.0 79 80
+ 2.428571 1 2 cbr 1000 ------- 1 1.0 2.0 80 81
- 2.428571 1 2 cbr 1000 ------- 1 1.0 2.0 80 81
r 2.442571 1 2 cbr 1000 ------- 1 1.0 2.0 80 81
+ 2.446429 1 2 cbr 1000 ------- 1 1.0 2.0 81 82
- 2.446429 1 2 cbr 1000 ------- 1 1.0 2.0 81 82
r 2.460429 1 2 cbr 1000 ------- 1 1.0 2.0 81 82
+ 2.464286 1 2 cbr 1000 ------- 1 1.0 2.0 82 83
- 2.464286 1 2 cbr 1000 ------- 1 1.0 2.0 82 83
r 2.478286 1 2 cbr 1000 ------- 1 1.0 2.0 82 83
+ 2.482143 1 2 cbr 1000 ------- 1 1.0 2.0 83 84
- 2.482143 1 2 cbr 1000 ------- 1 1.0 2.0 83 84
r 2.496143 1 2 cbr 1000 ------- 1 1.0 2.0 83 84
+ 2.5 1 2 cbr 1000 ------- 1 1.0 2.0 84 85
- 2.5 1 2 cbr 1000 ------- 1 1.0 2.0 84 85
r 2.514 1 2 cbr 1000 ------- 1 1.0 2.0 84 85
+ 2.517857 1 2 cbr 1000 ------- 1 1.0 2.0 85 86
- 2.517857 1 2 cbr 1000 ------- 1 1.0 2.0 85 86
r 2.531857 1 2 cbr 1000 ------- 1 1.0 2.0 85 86
+ 2.535714 1 2 cbr 1000 ------- 1 1.0 2.0 86 87
- 2.535714 1 2 cbr 1000 ------- 1 1.0 2.0 86 87
r 2.549714 1 2 cbr 1000 ------- 1 1.0 2.0 86 87
+ 2.553571 1 2 cbr 1000 ------- 1 1.0 2.0 87 88
- 2.553571 1 2 cbr 1000 ------- 1 1.0 2.0 87 88
r 2.567571 1 2 cbr 1000 ------- 1 1.0 2.0 87 88
+ 2.571429 1 2 cbr 1000 ------- 1 1.0 2.0 88 89
- 2.571429 1 2 cbr 1000 ------- 1 1.0 2.0 88 89
r 2.585429 1 2 cbr 1000 ------- 1 1.0 2.0 88 89
+ 2.589286 1 2 cbr 1000 ------- 1 1.0 2.0 89 90
- 2.589286 1 2 cbr 1000 ------- 1 1.0 2.0 89 90
r 2.603286 1 2 cbr 1000 ------- 1 1.0 2.0 89 90
+ 2.607143 1 2 cbr 1000 ------- 1 1.0 2.0 90 91
- 2.607143 1 2 cbr 1000 ------- 1 1.0 2.0 90 91
r 2.621143 1 2 cbr 1000 ------- 1 1.0 2.0 90 91
+ 2.625 1 2 cbr 1000 ------- 1 1.0 2.0 91 92
- 2.625 1 2 cbr 1000 ------- 1 1.0 2.0 91 92
r 2.639 1 2 cbr 1000 ------- 1 1.0 2.0 91 92
+ 2.642857 1 2 cbr 1000 ------- 1 1.0 2.0 92 93
- 2.642857 1 2 cbr 1000 ------- 1 1.0 2.0 92 93
r 2.656857 1 2 cbr 1000 ------- 1 1.0 2.0 92 93
+ 2.660714 1 2 cbr 1000 ------- 1 1.0 2.0 93 94
- 2.660714 1 2 cbr 1000 ------- 1 1.0 2.0 93 94
r 2.674714 1 2 cbr 1000 ------- 1 1.0 2.0 93 94
+ 2.678571 1 2 cbr 1000 ------- 1 1.0 2.0 94 95
- 2.678571 1 2 cbr 1000 ------- 1 1.0 2.0 94 95
r 2.692571 1 2 cbr 1000 ------- 1 1.0 2.0 94 95
+ 2.696429 1 2 cbr 1000 ------- 1 1.0 2.0 95 96
- 2.696429 1 2 cbr 1000 ------- 1 1.0 2.0 95 96
r 2.710429 1 2 cbr 1000 ------- 1 1.0 2.0 95 96
+ 2.714286 1 2 cbr 1000 ------- 1 1.0 2.0 96 97
- 2.714286 1 2 cbr 1000 ------- 1 1.0 2.0 96 97
r 2.728286 1 2 cbr 1000 ------- 1 1.0 2.0 96 97
+ 2.732143 1 2 cbr 1000 ------- 1 1.0 2.0 97 98
- 2.732143 1 2 cbr 1000 ------- 1 1.0 2.0 97 98
r 2.746143 1 2 cbr 1000 ------- 1 1.0 2.0 97 98
+ 2.75 1 2 cbr 1000 ------- 1 1.0 2.0 98 99
- 2.75 1 2 cbr 1000 ------- 1 1.0 2.0 98 99
r 2.764 1 2 cbr 1000 ------- 1 1.0 2.0 98 99
+ 2.767857 1 2 cbr 1000 ------- 1 1.0 2.0 99 100
- 2.767857 1 2 cbr 1000 ------- 1 1.0 2.0 99 100
r 2.781857 1 2 cbr 1000 ------- 1 1.0 2.0 99 100
+ 2.785714 1 2 cbr 1000 ------- 1 1.0 2.0 100 101
- 2.785714 1 2 cbr 1000 ------- 1 1.0 2.0 100 101
r 2.799714 1 2 cbr 1000 ------- 1 1.0 2.0 100 101
+ 2.803571 1 2 cbr 1000 ------- 1 1.0 2.0 101 102
- 2.803571 1 2 cbr 1000 ------- 1 1.0 2.0 101 102
r 2.817571 1 2 cbr 1000 ------- 1 1.0 2.0 101 102
+ 2.821429 1 2 cbr 1000 ------- 1 1.0 2.0 102 103
- 2.821429 1 2 cbr 1000 ------- 1 1.0 2.0 102 103
r 2.835429 1 2 cbr 1000 ------- 1 1.0 2.0 102 103
+ 2.839286 1 2 cbr 1000 ------- 1 1.0 2.0 103 104
- 2.839286 1 2 cbr 1000 ------- 1 1.0 2.0 103 104
r 2.853286 1 2 cbr 1000 ------- 1 1.0 2.0 103 104
+ 2.857143 1 2 cbr 1000 ------- 1 1.0 2.0 104 105
- 2.857143 1 2 cbr 1000 ------- 1 1.0 2.0 104 105
r 2.871143 1 2 cbr 1000 ------- 1 1.0 2.0 104 105
+ 2.875 1 2 cbr 1000 ------- 1 1.0 2.0 105 106
- 2.875 1 2 cbr 1000 ------- 1 1.0 2.0 105 106
r 2.889 1 2 cbr 1000 ------- 1 1.0 2.0 105 106
+ 2.892857 1 2 cbr 1000 ------- 1 1.0 2.0 106 107
- 2.892857 1 2 cbr 1000 ------- 1 1.0 2.0 106 107
r 2.906857 1 2 cbr 1000 ------- 1 1.0 2.0 106 107
+ 2.910714 1 2 cbr 1000 ------- 1 1.0 2.0 107 108
- 2.910714 1 2 cbr 1000 ------- 1 1.0 2.0 107 108
r 2.924714 1 2 cbr 1000 ------- 1 1.0 2.0 107 108
+ 2.928571 1 2 cbr 1000 ------- 1 1.0 2.0 108 109
- 2.928571 1 2 cbr 1000 ------- 1 1.0 2.0 108 109
r 2.942571 1 2 cbr 1000 ------- 1 1.0 2.0 108 109
+ 2.946429 1 2 cbr 1000 ------- 1 1.0 2.0 109 110
- 2.946429 1 2 cbr 1000 ------- 1 1.0 2.0 109 110
r 2.960429 1 2 cbr 1000 ------- 1 1.0 2.0 109 110
+ 2.964286 1 2 cbr 1000 ------- 1 1.0 2.0 110 111
- 2.964286 1 2 cbr 1000 ------- 1 1.0 2.0 110 111
r 2.978286 1 2 cbr 1000 ------- 1 1.0 2.0 110 111
+ 2.982143 1 2 cbr 1000 ------- 1 1.0 2.0 111 112
- 2.982143 1 2 cbr 1000 ------- 1 1.0 2.0 111 112
r 2.996143 1 2 cbr 1000 ------- 1 1.0 2.0 111 112
+ 3 1 2 cbr 1000 ------- 1 1.0 2.0 112 113
- 3 1 2 cbr 1000 ------- 1 1.0 2.0 112 113
r 3.014 1 2 cbr 1000 ------- 1 1.0 2.0 112 113
+ 3.017857 1 2 cbr 1000 ------- 1 1.0 2.0 113 114
- 3.017857 1 2 cbr 1000 ------- 1 1.0 2.0 113 114
r 3.031857 1 2 cbr 1000 ------- 1 1.0 2.0 113 114
+ 3.035714 1 2 cbr 1000 ------- 1 1.0 2.0 114 115
- 3.035714 1 2 cbr 1000 ------- 1 1.0 2.0 114 115
r 3.049714 1 2 cbr 1000 ------- 1 1.0 2.0 114 115
+ 3.053571 1 2 cbr 1000 ------- 1 1.0 2.0 115 116
- 3.053571 1 2 cbr 1000 ------- 1 1.0 2.0 115 116
r 3.067571 1 2 cbr 1000 ------- 1 1.0 2.0 115 116
+ 3.071429 1 2 cbr 1000 ------- 1 1.0 2.0 116 117
- 3.071429 1 2 cbr 1000 ------- 1 1.0 2.0 116 117
r 3.085429 1 2 cbr 1000 ------- 1 1.0 2.0 116 117
+ 3.089286 1 2 cbr 1000 ------- 1 1.0 2.0 117 118
- 3.089286 1 2 cbr 1000 ------- 1 1.0 2.0 117 118
r 3.103286 1 2 cbr 1000 ------- 1 1.0 2.0 117 118
+ 3.107143 1 2 cbr 1000 ------- 1 1.0 2.0 118 119
- 3.107143 1 2 cbr 1000 ------- 1 1.0 2.0 118 119
r 3.121143 1 2 cbr 1000 ------- 1 1.0 2.0 118 119
+ 3.125 1 2 cbr 1000 ------- 1 1.0 2.0 119 120
- 3.125 1 2 cbr 1000 ------- 1 1.0 2.0 119 120
r 3.139 1 2 cbr 1000 ------- 1 1.0 2.0 119 120
+ 3.142857 1 2 cbr 1000 ------- 1 1.0 2.0 120 121
- 3.142857 1 2 cbr 1000 ------- 1 1.0 2.0 120 121
r 3.156857 1 2 cbr 1000 ------- 1 1.0 2.0 120 121
+ 3.160714 1 2 cbr 1000 ------- 1 1.0 2.0 121 122
- 3.160714 1 2 cbr 1000 ------- 1 1.0 2.0 121 122
r 3.174714 1 2 cbr 1000 ------- 1 1.0 2.0 121 122
+ 3.178571 1 2 cbr 1000 ------- 1 1.0 2.0 122 123
- 3.178571 1 2 cbr 1000 ------- 1 1.0 2.0 122 123
r 3.192571 1 2 cbr 1000 ------- 1 1.0 2.0 122 123
+ 3.196429 1 2 cbr 1000 ------- 1 1.0 2.0 123 124
- 3.196429 1 2 cbr 1000 ------- 1 1.0 2.0 123 124
r 3.210429 1 2 cbr 1000 ------- 1 1.0 2.0 123 124
+ 3.214286 1 2 cbr 1000 ------- 1 1.0 2.0 124 125
- 3.214286 1 2 cbr 1000 ------- 1 1.0 2.0 124 125
r 3.228286 1 2 cbr 1000 ------- 1 1.0 2.0 124 125
+ 3.232143 1 2 cbr 1000 ------- 1 1.0 2.0 125 126
- 3.232143 1 2 cbr 1000 ------- 1 1.0 2.0 125 126
r 3.246143 1 2 cbr 1000 ------- 1 1.0 2.0 125 126
+ 3.25 1 2 cbr 1000 ------- 1 1.0 2.0 126 127
- 3.25 1 2 cbr 1000 ------- 1 1.0 2.0 126 127
r 3.264 1 2 cbr 1000 ------- 1 1.0 2.0 126 127
+ 3.267857 1 2 cbr 1000 ------- 1 1.0 2.0 127 128
- 3.267857 1 2 cbr 1000 ------- 1 1.0 2.0 127 128
r 3.281857 1 2 cbr 1000 ------- 1 1.0 2.0 127 128
+ 3.285714 1 2 cbr 1000 ------- 1 1.0 2.0 128 129
- 3.285714 1 2 cbr 1000 ------- 1 1.0 2.0 128 129
r 3.299714 1 2 cbr 1000 ------- 1 1.0 2.0 128 129
+ 3.303571 1 2 cbr 1000 ------- 1 1.0 2.0 129 130
- 3.303571 1 2 cbr 1000 ------- 1 1.0 2.0 129 130
r 3.317571 1 2 cbr 1000 ------- 1 1.0 2.0 129 130
+ 3.321429 1 2 cbr 1000 ------- 1 1.0 2.0 130 131
- 3.321429 1 2 cbr 1000 ------- 1 1.0 2.0 130 131
r 3.335429 1 2 cbr 1000 ------- 1 1.0 2.0 130 131
+ 3.339286 1 2 cbr 1000 ------- 1 1.0 2.0 131 132
- 3.339286 1 2 cbr 1000 ------- 1 1.0 2.0 131 132
r 3.353286 1 2 cbr 1000 ------- 1 1.0 2.0 131 132
+ 3.357143 1 2 cbr 1000 ------- 1 1.0 2.0 132 133
- 3.357143 1 2 cbr 1000 ------- 1 1.0 2.0 132 133
r 3.371143 1 2 cbr 1000 ------- 1 1.0 2.0 132 133
+ 3.375 1 2 cbr 1000 ------- 1 1.0 2.0 133 134
- 3.375 1 2 cbr 1000 ------- 1 1.0 2.0 133 134
r 3.389 1 2 cbr 1000 ------- 1 1.0 2.0 133 134
+ 3.392857 1 2 cbr 1000 ------- 1 1.0 2.0 134 135
- 3.392857 1 2 cbr 1000 ------- 1 1.0 2.0 134 135
r 3.406857 1 2 cbr 1000 ------- 1 1.0 2.0 134 135
+ 3.410714 1 2 cbr 1000 ------- 1 1.0 2.0 135 136
- 3.410714 1 2 cbr 1000 ------- 1 1.0 2.0 135 136
r 3.424714 1 2 cbr 1000 ------- 1 1.0 2.0 135 136
+ 3.428571 1 2 cbr 1000 ------- 1 1.0 2.0 136 137
- 3.428571 1 2 cbr 1000 ------- 1 1.0 2.0 136 137
r 3.442571 1 2 cbr 1000 ------- 1 1.0 2.0 136 137
+ 3.446429 1 2 cbr 1000 ------- 1 1.0 2.0 137 138
- 3.446429 1 2 cbr 1000 ------- 1 1.0 2.0 137 138
r 3.460429 1 2 cbr 1000 ------- 1 1.0 2.0 137 138
+ 3.464286 1 2 cbr 1000 ------- 1 1.0 2.0 138 139
- 3.464286 1 2 cbr 1000 ------- 1 1.0 2.0 138 139
r 3.478286 1 2 cbr 1000 ------- 1 1.0 2.0 138 139
+ 3.482143 1 2 cbr 1000 ------- 1 1.0 2.0 139 140
- 3.482143 1 2 cbr 1000 ------- 1 1.0 2.0 139 140
r 3.496143 1 2 cbr 1000 ------- 1 1.0 2.0 139 140
+ 3.5 1 2 cbr 1000 ------- 1 1.0 2.0 140 141
- 3.5 1 2 cbr 1000 ------- 1 1.0 2.0 140 141
r 3.514 1 2 cbr 1000 ------- 1 1.0 2.0 140 141
+ 3.517857 1 2 cbr 1000 ------- 1 1.0 2.0 141 142
- 3.517857 1 2 cbr 1000 ------- 1 1.0 2.0 141 142
r 3.531857 1 2 cbr 1000 ------- 1 1.0 2.0 141 142
+ 3.535714 1 2 cbr 1000 ------- 1 1.0 2.0 142 143
- 3.535714 1 2 cbr 1000 ------- 1 1.0 2.0 142 143
r 3.549714 1 2 cbr 1000 ------- 1 1.0 2.0 142 143
+ 3.553571 1 2 cbr 1000 ------- 1 1.0 2.0 143 144
- 3.553571 1 2 cbr 1000 ------- 1 1.0 2.0 143 144
r 3.567571 1 2 cbr 1000 ------- 1 1.0 2.0 143 144
+ 3.571429 1 2 cbr 1000 ------- 1 1.0 2.0 144 145
- 3.571429 1 2 cbr 1000 ------- 1 1.0 2.0 144 145
r 3.585429 1 2 cbr 1000 ------- 1 1.0 2.0 144 145
+ 3.589286 1 2 cbr 1000 ------- 1 1.0 2.0 145 146
- 3.589286 1 2 cbr 1000 ------- 1 1.0 2.0 145 146
r 3.603286 1 2 cbr 1000 ------- 1 1.0 2.0 145 146
+ 3.607143 1 2 cbr 1000 ------- 1 1.0 2.0 146 147
- 3.607143 1 2 cbr 1000 ------- 1 1.0 2.0 146 147
r 3.621143 1 2 cbr 1000 ------- 1 1.0 2.0 146 147
+ 3.625 1 2 cbr 1000 ------- 1 1.0 2.0 147 148
- 3.625 1 2 cbr 1000 ------- 1 1.0 2.0 147 148
r 3.639 1 2 cbr 1000 ------- 1 1.0 2.0 147 148
+ 3.642857 1 2 cbr 1000 ------- 1 1.0 2.0 148 149
- 3.642857 1 2 cbr 1000 ------- 1 1.0 2.0 148 149
r 3.656857 1 2 cbr 1000 ------- 1 1.0 2.0 148 149
+ 3.660714 1 2 cbr 1000 ------- 1 1.0 2.0 149 150
- 3.660714 1 2 cbr 1000 ------- 1 1.0 2.0 149 150
r 3.674714 1 2 cbr 1000 ------- 1 1.0 2.0 149 150
+ 3.678571 1 2 cbr 1000 ------- 1 1.0 2.0 150 151
- 3.678571 1 2 cbr 1000 ------- 1 1.0 2.0 150 151
r 3.692571 1 2 cbr 1000 ------- 1 1.0 2.0 150 151
+ 3.696429 1 2 cbr 1000 ------- 1 1.0 2.0 151 152
- 3.696429 1 2 cbr 1000 ------- 1 1.0 2.0 151 152
r 3.710429 1 2 cbr 1000 ------- 1 1.0 2.0 151 152
+ 3.714286 1 2 cbr 1000 ------- 1 1.0 2.0 152 153
- 3.714286 1 2 cbr 1000 ------- 1 1.0 2.0 152 153
r 3.728286 1 2 cbr 1000 ------- 1 1.0 2.0 152 153
+ 3.732143 1 2 cbr 1000 ------- 1 1.0 2.0 153 154
- 3.732143 1 2 cbr 1000 ------- 1 1.0 2.0 153 154
r 3.746143 1 2 cbr 1000 ------- 1 1.0 2.0 153 154
+ 3.75 1 2 cbr 1000 ------- 1 1.0 2.0 154 155
- 3.75 1 2 cbr 1000 ------- 1 1.0 2.0 154 155
r 3.764 1 2 cbr 1000 ------- 1 1.0 2.0 154 155
+ 3.767857 1 2 cbr 1000 ------- 1 1.0 2.0 155 156
- 3.767857 1 2 cbr 1000 ------- 1 1.0 2.0 155 156
r 3.781857 1 2 cbr 1000 ------- 1 1.0 2.0 155 156
+ 3.785714 1 2 cbr 1000 ------- 1 1.0 2.0 156 157
- 3.785714 1 2 cbr 1000 ------- 1 1.0 2.0 156 157
r 3.799714 1 2 cbr 1000 ------- 1 1.0 2.0 156 157
+ 3.803571 1 2 cbr 1000 ------- 1 1.0 2.0 157 158
- 3.803571 1 2 cbr 1000 ------- 1 1.0 2.0 157 158
r 3.817571 1 2 cbr 1000 ------- 1 1.0 2.0 157 158
+ 3.821429 1 2 cbr 1000 ------- 1 1.0 2.0 158 159
- 3.821429 1 2 cbr 1000 ------- 1 1.0 2.0 158 159
r 3.835429 1 2 cbr 1000 ------- 1 1.0 2.0 158 159
+ 3.839286 1 2 cbr 1000 ------- 1 1.0 2.0 159 160
- 3.839286 1 2 cbr 1000 ------- 1 1.0 2.0 159 160
r 3.853286 1 2 cbr 1000 ------- 1 1.0 2.0 159 160
+ 3.857143 1 2 cbr 1000 ------- 1 1.0 2.0 160 161
- 3.857143 1 2 cbr 1000 ------- 1 1.0 2.0 160 161
r 3.871143 1 2 cbr 1000 ------- 1 1.0 2.0 160 161
+ 3.875 1 2 cbr 1000 ------- 1 1.0 2.0 161 162
- 3.875 1 2 cbr 1000 ------- 1 1.0 2.0 161 162
r 3.889 1 2 cbr 1000 ------- 1 1.0 2.0 161 162
+ 3.892857 1 2 cbr 1000 ------- 1 1.0 2.0 162 163
- 3.892857 1 2 cbr 1000 ------- 1 1.0 2.0 162 163
r 3.906857 1 2 cbr 1000 ------- 1 1.0 2.0 162 163
+ 3.910714 1 2 cbr 1000 ------- 1 1.0 2.0 163 164
- 3.910714 1 2 cbr 1000 ------- 1 1.0 2.0 163 164
r 3.924714 1 2 cbr 1000 ------- 1 1.0 2.0 163 164
+ 3.928571 1 2 cbr 1000 ------- 1 1.0 2.0 164 165
- 3.928571 1 2 cbr 1000 ------- 1 1.0 2.0 164 165
r 3.942571 1 2 cbr 1000 ------- 1 1.0 2.0 164 165
+ 3.946429 1 2 cbr 1000 ------- 1 1.0 2.0 165 166
- 3.946429 1 2 cbr 1000 ------- 1 1.0 2.0 165 166
r 3.960429 1 2 cbr 1000 ------- 1 1.0 2.0 165 166
+ 3.964286 1 2 cbr 1000 ------- 1 1.0 2.0 166 167
- 3.964286 1 2 cbr 1000 ------- 1 1.0 2.0 166 167
r 3.978286 1 2 cbr 1000 ------- 1 1.0 2.0 166 167
+ 3.982143 1 2 cbr 1000 ------- 1 1.0 2.0 167 168
- 3.982143 1 2 cbr 1000 ------- 1 1.0 2.0 167 168
r 3.996143 1 2 cbr 1000 ------- 1 1.0 2.0 167 168
+ 4 1 2 cbr 1000 ------- 1 1.0 2.0 168 169
- 4 1 2 cbr 1000 ------- 1 1.0 2.0 168 169
r 4.014 1 2 cbr 1000 ------- 1 1.0 2.0 168 169
+ 4.017857 1 2 cbr 1000 ------- 1 1.0 2.0 169 170
- 4.017857 1 2 cbr 1000 ------- 1 1.0 2.0 169 170
r 4.031857 1 2 cbr 1000 ------- 1 1.0 2.0 169 170
+ 4.035714 1 2 cbr 1000 ------- 1 1.0 2.0 170 171
- 4.035714 1 2 cbr 1000 ------- 1 1.0 2.0 170 171
r 4.049714 1 2 cbr 1000 ------- 1 1.0 2.0 170 171
+ 4.053571 1 2 cbr 1000 ------- 1 1.0 2.0 171 172
- 4.053571 1 2 cbr 1000 ------- 1 1.0 2.0 171 172
r 4.067571 1 2 cbr 1000 ------- 1 1.0 2.0 171 172
+ 4.071429 1 2 cbr 1000 ------- 1 1.0 2.0 172 173
- 4.071429 1 2 cbr 1000 ------- 1 1.0 2.0 172 173
r 4.085429 1 2 cbr 1000 ------- 1 1.0 2.0 172 173
+ 4.089286 1 2 cbr 1000 ------- 1 1.0 2.0 173 174
- 4.089286 1 2 cbr 1000 ------- 1 1.0 2.0 173 174
r 4.103286 1 2 cbr 1000 ------- 1 1.0 2.0 173 174
+ 4.107143 1 2 cbr 1000 ------- 1 1.0 2.0 174 175
- 4.107143 1 2 cbr 1000 ------- 1 1.0 2.0 174 175
r 4.121143 1 2 cbr 1000 ------- 1 1.0 2.0 174 175
+ 4.125 1 2 cbr 1000 ------- 1 1.0 2.0 175 176
- 4.125 1 2 cbr 1000 ------- 1 1.0 2.0 175 176
r 4.139 1 2 cbr 1000 ------- 1 1.0 2.0 175 176
+ 4.142857 1 2 cbr 1000 ------- 1 1.0 2.0 176 177
- 4.142857 1 2 cbr 1000 ------- 1 1.0 2.0 176 177
r 4.156857 1 2 cbr 1000 ------- 1 1.0 2.0 176 177
+ 4.160714 1 2 cbr 1000 ------- 1 1.0 2.0 177 178
- 4.160714 1 2 cbr 1000 ------- 1 1.0 2.0 177 178
r 4.174714 1 2 cbr 1000 ------- 1 1.0 2.0 177 178
+ 4.178571 1 2 cbr 1000 ------- 1 1.0 2.0 178 179
- 4.178571 1 2 cbr 1000 ------- 1 1.0 2.0 178 179
r 4.192571 1 2 cbr 1000 ------- 1 1.0 2.0 178 179
+ 4.196429 1 2 cbr 1000 ------- 1 1.0 2.0 179 180
- 4.196429 1 2 cbr 1000 ------- 1 1.0 2.0 179 180
r 4.210429 1 2 cbr 1000 ------- 1 1.0 2.0 179 180
+ 4.214286 1 2 cbr 1000 ------- 1 1.0 2.0 180 181
- 4.214286 1 2 cbr 1000 ------- 1 1.0 2.0 180 181
r 4.228286 1 2 cbr 1000 ------- 1 1.0 2.0 180 181
+ 4.232143 1 2 cbr 1000 ------- 1 1.0 2.0 181 182
- 4.232143 1 2 cbr 1000 ------- 1 1.0 2.0 181 182
r 4.246143 1 2 cbr 1000 ------- 1 1.0 2.0 181 182
+ 4.25 1 2 cbr 1000 ------- 1 1.0 2.0 182 183
- 4.25 1 2 cbr 1000 ------- 1 1.0 2.0 182 183
r 4.264 1 2 cbr 1000 ------- 1 1.0 2.0 182 183
+ 4.267857 1 2 cbr 1000 ------- 1 1.0 2.0 183 184
- 4.267857 1 2 cbr 1000 ------- 1 1.0 2.0 183 184
r 4.281857 1 2 cbr 1000 ------- 1 1.0 2.0 183 184
+ 4.285714 1 2 cbr 1000 ------- 1 1.0 2.0 184 185
- 4.285714 1 2 cbr 1000 ------- 1 1.0 2.0 184 185
r 4.299714 1 2 cbr 1000 ------- 1 1.0 2.0 184 185
+ 4.303571 1 2 cbr 1000 ------- 1 1.0 2.0 185 186
- 4.303571 1 2 cbr 1000 ------- 1 1.0 2.0 185 186
r 4.317571 1 2 cbr 1000 ------- 1 1.0 2.0 185 186
+ 4.321429 1 2 cbr 1000 ------- 1 1.0 2.0 186 187
- 4.321429 1 2 cbr 1000 ------- 1 1.0 2.0 186 187
r 4.335429 1 2 cbr 1000 ------- 1 1.0 2.0 186 187
+ 4.339286 1 2 cbr 1000 ------- 1 1.0 2.0 187 188
- 4.339286 1 2 cbr 1000 ------- 1 1.0 2.0 187 188
r 4.353286 1 2 cbr 1000 ------- 1 1.0 2.0 187 188
+ 4.357143 1 2 cbr 1000 ------- 1 1.0 2.0 188 189
- 4.357143 1 2 cbr 1000 ------- 1 1.0 2.0 188 189
r 4.371143 1 2 cbr 1000 ------- 1 1.0 2.0 188 189
+ 4.375 1 2 cbr 1000 ------- 1 1.0 2.0 189 190
- 4.375 1 2 cbr 1000 ------- 1 1.0 2.0 189 190
r 4.389 1 2 cbr 1000 ------- 1 1.0 2.0 189 190
+ 4.392857 1 2 cbr 1000 ------- 1 1.0 2.0 190 191
- 4.392857 1 2 cbr 1000 ------- 1 1.0 2.0 190 191
r 4.406857 1 2 cbr 1000 ------- 1 1.0 2.0 190 191
+ 4.410714 1 2 cbr 1000 ------- 1 1.0 2.0 191 192
- 4.410714 1 2 cbr 1000 ------- 1 1.0 2.0 191 192
r 4.424714 1 2 cbr 1000 ------- 1 1.0 2.0 191 192
+ 4.428571 1 2 cbr 1000 ------- 1 1.0 2.0 192 193
- 4.428571 1 2 cbr 1000 ------- 1 1.0 2.0 192 193
r 4.442571 1 2 cbr 1000 ------- 1 1.0 2.0 192 193
+ 4.446429 1 2 cbr 1000 ------- 1 1.0 2.0 193 194
- 4.446429 1 2 cbr 1000 ------- 1 1.0 2.0 193 194
r 4.460429 1 2 cbr 1000 ------- 1 1.0 2.0 193 194
+ 4.464286 1 2 cbr 1000 ------- 1 1.0 2.0 194 195
- 4.464286 1 2 cbr 1000 ------- 1 1.0 2.0 194 195
r 4.478286 1 2 cbr 1000 ------- 1 1.0 2.0 194 195
+ 4.482143 1 2 cbr 1000 ------- 1 1.0 2.0 195 196
- 4.482143 1 2 cbr 1000 ------- 1 1.0 2.0 195 196
r 4.496143 1 2 cbr 1000 ------- 1 1.0 2.0 195 196
+ 4.5 1 2 cbr 1000 ------- 1 1.0 2.0 196 197
- 4.5 1 2 cbr 1000 ------- 1 1.0 2.0 196 197
r 4.514 1 2 cbr 1000 ------- 1 1.0 2.0 196 197
+ 4.517857 1 2 cbr 1000 ------- 1 1.0 2.0 197 198
- 4.517857 1 2 cbr 1000 ------- 1 1.0 2.0 197 198
r 4.531857 1 2 cbr 1000 ------- 1 1.0 2.0 197 198
+ 4.535714 1 2 cbr 1000 ------- 1 1.0 2.0 198 199
- 4.535714 1 2 cbr 1000 ------- 1 1.0 2.0 198 199
r 4.549714 1 2 cbr 1000 ------- 1 1.0 2.0 198 199
+ 4.553571 1 2 cbr 1000 ------- 1 1.0 2.0 199 200
- 4.553571 1 2 cbr 1000 ------- 1 1.0 2.0 199 200
r 4.567571 1 2 cbr 1000 ------- 1 1.0 2.0 199 200
+ 4.571429 1 2 cbr 1000 ------- 1 1.0 2.0 200 201
- 4.571429 1 2 cbr 1000 ------- 1 1.0 2.0 200 201
r 4.585429 1 2 cbr 1000 ------- 1 1.0 2.0 200 201
+ 4.589286 1 2 cbr 1000 ------- 1 1.0 2.0 201 202
- 4.589286 1 2 cbr 1000 ------- 1 1.0 2.0 201 202
r 4.603286 1 2 cbr 1000 ------- 1 1.0 2.0 201 202
+ 4.607143 1 2 cbr 1000 ------- 1 1.0 2.0 202 203
- 4.607143 1 2 cbr 1000 ------- 1 1.0 2.0 202 203
r 4.621143 1 2 cbr 1000 ------- 1 1.0 2.0 202 203
+ 4.625 1 2 cbr 1000 ------- 1 1.0 2.0 203 204
- 4.625 1 2 cbr 1000 ------- 1 1.0 2.0 203 204
r 4.639 1 2 cbr 1000 ------- 1 1.0 2.0 203 204
+ 4.642857 1 2 cbr 1000 ------- 1 1.0 2.0 204 205
- 4.642857 1 2 cbr 1000 ------- 1 1.0 2.0 204 205
r 4.656857 1 2 cbr 1000 ------- 1 1.0 2.0 204 205
+ 4.660714 1 2 cbr 1000 ------- 1 1.0 2.0 205 206
- 4.660714 1 2 cbr 1000 ------- 1 1.0 2.0 205 206