V -t * -v 1.0a5 -a 0
A -t * -n 1 -p 0 -o 0x7fffffff -c 30 -a 1
A -t * -h 1 -m 1073741823 -s 0
c -t * -i 1 -n green
c -t * -i 2 -n red
c -t * -i 3 -n blue
n -t * -a 0 -s 0 -S UP -v circle -c black -i black
n -t * -a 1 -s 1 -S UP -v circle -c black -i black
n -t * -a 2 -s 2 -S UP -v circle -c black -i black
n -t * -a 3 -s 3 -S UP -v circle -c black -i black
l -t * -s 0 -d 2 -S UP -r 2000000 -D 0.01 -c black
l -t * -s 1 -d 2 -S UP -r 2000000 -D 0.01 -c black
l -t * -s 2 -d 3 -S UP -r 1500000 -D 0.02 -c black
+ -t 1 -s 1 -d 2 -p cbr -e 1000 -c 1 -i 0 -a 1 -x {1.0 2.0 0 ------- null}
- -t 1 -s 1 -d 2 -p cbr -e 1000 -c 1 -i 0 -a 1 -x {1.0 2.0 0 ------- null}
h -t 1 -s 1 -d 2 -p cbr -e 1000 -c 1 -i 0 -a 1 -x {1.0 2.0 -1 ------- null}
r -t 1.014 -s 1 -d 2 -p cbr -e 1000 -c 1 -i 0 -a 1 -x {1.0 2.0 0 ------- null}
+ -t 1.01785714285714 -s 1 -d 2 -p cbr -e 1000 -c 1 -i 1 -a 1 -x {1.0 2.0 1 ------- null}
- -t 1.01785714285714 -s 1 -d 2 -p cbr -e 1000 -c 1 -i 1 -a 1 -x {1.0 2.0 1 ------- null}
h -t 1.01785714285714 -s 1 -d 2 -p cbr -e 1000 -c 1 -i 1 -a 1 -x {1.0 2.0 -1 ------- null}
r -t 1.03185714285714 -s 1 -d 2 -p cbr -e 1000 -c 1 -i 1 -a 1 -x {1.0 2.0 1 ------- null}
+ -t 1.03571428571429 -s 1 -d 2 -p cbr -e 1000 -c 1 -i 2 -a 1 -x {1.0 2.0 2 ------- null}
- -t 1.03571428571429 -s 1 -d 2 -p cbr -e 1000 -c 1 -i 2 -a 1 -x {1.0 2.0 2 ------- null}
h -t 1.03571428571429 -s 1 -d 2 -p cbr -e 1000 -c 1 -i 2 -a 1 -x {1.0 2.0 -1 ------- null}
r -t 1.04971428571429 -s 1 -d 2 -p cbr -e 1000 -c 1 -i 2 -a 1 -x {1.0 2.0 2 ------- null}
+ -t 1.05357142857143 -s 1 -d 2 -p cbr -e 1000 -c 1 -i 3 -a 1 -x {1.0 2.0 3 ------- null}
- -t 1.05357142857143 -s 1 -d 2 -p cbr -e 1000 -c 1 -i 3 -a 1 -x {1.0 2.0 3 ------- null}
h -t 1.05357142857143 -s 1 -d 2 -p cbr -e 1000 -c 1 -i 3 -a 1 -x {1.0 2.0 -1 ------- null}
r -t 1.06757142857143 -s 1 -d 2 -p cbr -e 1000 -c 1 -i 3 -a 1 -x {1.0 2.0 3 ------- null}
+ -t 1.07142857142857 -s 1 -d 2 -p cbr -e 1000 -c 1 -i 4 -a 1 -x {1.0 2.0 4 ------- null}
- -t 1.07142857142857 -s 1 -d 2 -p cbr -e 1000 -c 1 -i 4 -a 1 -x {1.0 2.0 4 ------- null}
h -t 1.07142857142857 -s 1 -d 2 -p cbr -e 1000 -c 1 -i 4 -a 1 -x {1.0 2.0 -1 ------- null}
r -t 1.08542857142857 -s 1 -d 2 -p cbr -e 1000 -c 1 -i 4 -a 1 -x {1.0 2.0 4 ------- null}
+ -t 1.08928571428571 -s 1 -d 2 -p cbr -e 1000 -c 1 -i 5 -a 1 -x {1.0 2.0 5 ------- null}
- -t 1.08928571428571 -s 1 -d 2 -p cbr -e 1000 -c 1 -i 5 -a 1 -x {1.0 2.0 5 ------- null}
h -t 1.08928571428571 -s 1 -d 2 -p cbr -e 1000 -c 1 -i 5 -a 1 -x {1.0 2.0 -1 ------- null}
r -t 1.10328571428571 -s 1 -d 2 -p cbr -e 1000 -c 1 -i 5 -a 1 -x {1.0 2.0 5 ------- null}
+ -t 1.10714285714286 -s 1 -d 2 -p cbr -e 1000 -c 1 -i 6 -a 1 -x {1.0 2.0 6 ------- null}
- -t 1.10714285714286 -s 1 -d 2 -p cbr -e 1000 -c 1 -i 6 -a 1 -x {1.0 2.0 6 ------- null}
h -t 1.10714285714286 -s 1 -d 2 -p cbr -e 1000 -c 1 -i 6 -a 1 -x {1.0 2.0 -1 ------- null}
r -t 1.12114285714286 -s 1 -d 2 -p cbr -e 1000 -c 1 -i 6 -a 1 -x {1.0 2.0 6 ------- null}
+ -t 1.125 -s 1 -d 2 -p cbr -e 1000 -c 1 -i 7 -a 1 -x {1.0 2.0 7 ------- null}
- -t 1.125 -s 1 -d 2 -p cbr -e 1000 -c 1 -i 7 -a 1 -x {1.0 2.0 7 ------- null}
h -t 1.125 -s 1 -d 2 -p cbr -e 1000 -c 1 -i 7 -a 1 -x {1.0 2.0 -1 ------- null}
r -t 1.139 -s 1 -d 2 -p cbr -e 1000 -c 1 -i 7 -a 1 -x {1.0 2.0 7 ------- null}
+ -t 1.14285714285714 -s 1 -d 2 -p cbr -e 1000 -c 1 -i 8 -a 1 -x {1.0 2.0 8 ------- null}
- -t 1.14285714285714 -s 1 -d 2 -p cbr -e 1000 -c 1 -i 8 -a 1 -x {1.0 2.0 8 ------- null}
h -t 1.14285714285714 -s 1 -d 2 -p cbr -e 1000 -c 1 -i 8 -a 1 -x {1.0 2.0 -1 ------- null}
r -t 1.15685714285714 -s 1 -d 2 -p cbr -e 1000 -c 1 -i 8 -a 1 -x {1.0 2.0 8 ------- null}
+ -t 1.16071428571429 -s 1 -d 2 -p cbr -e 1000 -c 1 -i 9 -a 1 -x {1.0 2.0 9 ------- null}
- -t 1.16071428571429 -s 1 -d 2 -p cbr -e 1000 -c 1 -i 9 -a 1 -x {1.0 2.0 9 ------- null}
h -t 1.16071428571429 -s 1 -d 2 -p cbr -e 1000 -c 1 -i 9 -a 1 -x {1.0 2.0 -1 ------- null}
r -t 1.17471428571429 -s 1 -d 2 -p cbr -e 1000 -c 1 -i 9 -a 1 -x {1.0 2.0 9 ------- null}
+ -t 1.17857142857143 -s 1 -d 2 -p cbr -e 1000 -c 1 -i 10 -a 1 -x {1.0 2.0 10 ------- null}
- -t 1.17857142857143 -s 1 -d 2 -p cbr -e 1000 -c 1 -i 10 -a 1 -x {1.0 2.0 10 ------- null}
h -t 1.17857142857143 -s 1 -d 2 -p cbr -e 1000 -c 1 -i 10 -a 1 -x {1.0 2.0 -1 ------- null}
r -t 1.19257142857143 -s 1 -d 2 -p cbr -e 1000 -c 1 -i 10 -a 1 -x {1.0 2.0 10 ------- null}
+ -t 1.19642857142857 -s 1 -d 2 -p cbr -e 1000 -c 1 -i 11 -a 1 -x {1.0 2.0 11 ------- null}
- -t 1.19642857142857 -s 1 -d 2 -p cbr -e 1000 -c 1 -i 11 -a 1 -x {1.0 2.0 11 ------- null}
h -t 1.19642857142857 -s 1 -d 2 -p cbr -e 1000 -c 1 -i 11 -a 1 -x {1.0 2.0 -1 ------- null}
r -t 1.21042857142857 -s 1 -d 2 -p cbr -e 1000 -c 1 -i 11 -a 1 -x {1.0 2.0 11 ------- null}
+ -t 1.21428571428571 -s 1 -d 2 -p cbr -e 1000 -c 1 -i 12 -a 1 -x {1.0 2.0 12 ------- null}
- -t 1.21428571428571 -s 1 -d 2 -p cbr -e 1000 -c 1 -i 12 -a 1 -x {1.0 2.0 12 ------- null}
h -t 1.21428571428571 -s 1 -d 2 -p cbr -e 1000 -c 1 -i 12 -a 1 -x {1.0 2.0 -1 ------- null}
r -t 1.22828571428571 -s 1 -d 2 -p cbr -e 1000 -c 1 -i 12 -a 1 -x {1.0 2.0 12 ------- null}
+ -t 1.23214285714286 -s 1 -d 2 -p cbr -e 1000 -c 1 -i 13 -a 1 -x {1.0 2.0 13 ------- null}
- -t 1.23214285714286 -s 1 -d 2 -p cbr -e 1000 -c 1 -i 13 -a 1 -x {1.0 2.0 13 ------- null}
h -t 1.23214285714286 -s 1 -d 2 -p cbr -e 1000 -c 1 -i 13 -a 1 -x {1.0 2.0 -1 ------- null}
r -t 1.24614285714286 -s 1 -d 2 -p cbr -e 1000 -c 1 -i 13 -a 1 -x {1.0 2.0 13 ------- null}
+ -t 1.25 -s 1 -d 2 -p cbr -e 1000 -c 1 -i 14 -a 1 -x {1.0 2.0 14 ------- null}
- -t 1.25 -s 1 -d 2 -p cbr -e 1000 -c 1 -i 14 -a 1 -x {1.0 2.0 14 ------- null}
h -t 1.25 -s 1 -d 2 -p cbr -e 1000 -c 1 -i 14 -a 1 -x {1.0 2.0 -1 ------- null}
r -t 1.264 -s 1 -d 2 -p cbr -e 1000 -c 1 -i 14 -a 1 -x {1.0 2.0 14 ------- null}
+ -t 1.26785714285714 -s 1 -d 2 -p cbr -e 1000 -c 1 -i 15 -a 1 -x {1.0 2.0 15 ------- null}
- -t 1.26785714285714 -s 1 -d 2 -p cbr -e 1000 -c 1 -i 15 -a 1 -x {1.0 2.0 15 ------- null}
h -t 1.26785714285714 -s 1 -d 2 -p cbr -e 1000 -c 1 -i 15 -a 1 -x {1.0 2.0 -1 ------- null}
r -t 1.28185714285714 -s 1 -d 2 -p cbr -e 1000 -c 1 -i 15 -a 1 -x {1.0 2.0 15 ------- null}
+ -t 1.28571428571428 -s 1 -d 2 -p cbr -e 1000 -c 1 -i 16 -a 1 -x {1.0 2.0 16 ------- null}
- -t 1.28571428571428 -s 1 -d 2 -p cbr -e 1000 -c 1 -i 16 -a 1 -x {1.0 2.0 16 ------- null}
h -t 1.28571428571428 -s 1 -d 2 -p cbr -e 1000 -c 1 -i 16 -a 1 -x {1.0 2.0 -1 ------- null}
r -t 1.29971428571428 -s 1 -d 2 -p cbr -e 1000 -c 1 -i 16 -a 1 -x {1.0 2.0 16 ------- null}
+ -t 1.30357142857143 -s 1 -d 2 -p cbr -e 1000 -c 1 -i 17 -a 1 -x {1.0 2.0 17 ------- null}
- -t 1.30357142857143 -s 1 -d 2 -p cbr -e 1000 -c 1 -i 17 -a 1 -x {1.0 2.0 17 ------- null}
h -t 1.30357142857143 -s 1 -d 2 -p cbr -e 1000 -c 1 -i 17 -a 1 -x {1.0 2.0 -1 ------- null}
r -t 1.31757142857143 -s 1 -d 2 -p cbr -e 1000 -c 1 -i 17 -a 1 -x {1.0 2.0 17 ------- null}
+ -t 1.32142857142857 -s 1 -d 2 -p cbr -e 1000 -c 1 -i 18 -a 1 -x {1.0 2.0 18 ------- null}
- -t 1.32142857142857 -s 1 -d 2 -p cbr -e 1000 -c 1 -i 18 -a 1 -x {1.0 2.0 18 ------- null}
h -t 1.32142857142857 -s 1 -d 2 -p cbr -e 1000 -c 1 -i 18 -a 1 -x {1.0 2.0 -1 ------- null}
r -t 1.33542857142857 -s 1 -d 2 -p cbr -e 1000 -c 1 -i 18 -a 1 -x {1.0 2.0 18 ------- null}
+ -t 1.33928571428571 -s 1 -d 2 -p cbr -e 1000 -c 1 -i 19 -a 1 -x {1.0 2.0 19 ------- null}
- -t 1.33928571428571 -s 1 -d 2 -p cbr -e 1000 -c 1 -i 19 -a 1 -x {1.0 2.0 19 ------- null}
h -t 1.33928571428571 -s 1 -d 2 -p cbr -e 1000 -c 1 -i 19 -a 1 -x {1.0 2.0 -1 ------- null}
r -t 1.35328571428571 -s 1 -d 2 -p cbr -e 1000 -c 1 -i 19 -a 1 -x {1.0 2.0 19 ------- null}
+ -t 1.35714285714286 -s 1 -d 2 -p cbr -e 1000 -c 1 -i 20 -a 1 -x {1.0 2.0 20 ------- null}
- -t 1.35714285714286 -s 1 -d 2 -p cbr -e 1000 -c 1 -i 20 -a 1 -x {1.0 2.0 20 ------- null}
h -t 1.35714285714286 -s 1 -d 2 -p cbr -e 1000 -c 1 -i 20 -a 1 -x {1.0 2.0 -1 ------- null}
r -t 1.37114285714286 -s 1 -d 2 -p cbr -e 1000 -c 1 -i 20 -a 1 -x {1.0 2.0 20 ------- null}
+ -t 1.375 -s 1 -d 2 -p cbr -e 1000 -c 1 -i 21 -a 1 -x {1.0 2.0 21 ------- null}
- -t 1.375 -s 1 -d 2 -p cbr -e 1000 -c 1 -i 21 -a 1 -x {1.0 2.0 21 ------- null}
h -t 1.375 -s 1 -d 2 -p cbr -e 1000 -c 1 -i 21 -a 1 -x {1.0 2.0 -1 ------- null}
r -t 1.389 -s 1 -d 2 -p cbr -e 1000 -c 1 -i 21 -a 1 -x {1.0 2.0 21 ------- null}
+ -t 1.39285714285714 -s 1 -d 2 -p cbr -e 1000 -c 1 -i 22 -a 1 -x {1.0 2.0 22 ------- null}
- -t 1.39285714285714 -s 1 -d 2 -p cbr -e 1000 -c 1 -i 22 -a 1 -x {1.0 2.0 22 ------- null}
h -t 1.39285714285714 -s 1 -d 2 -p cbr -e 1000 -c 1 -i 22 -a 1 -x {1.0 2.0 -1 ------- null}
r -t 1.40685714285714 -s 1 -d 2 -p cbr -e 1000 -c 1 -i 22 -a 1 -x {1.0 2.0 22 ------- null}
+ -t 1.41071428571428 -s 1 -d 2 -p cbr -e 1000 -c 1 -i 23 -a 1 -x {1.0 2.0 23 ------- null}
- -t 1.41071428571428 -s 1 -d 2 -p cbr -e 1000 -c 1 -i 23 -a 1 -x {1.0 2.0 23 ------- null}
h -t 1.41071428571428 -s 1 -d 2 -p cbr -e 1000 -c 1 -i 23 -a 1 -x {1.0 2.0 -1 ------- null}
r -t 1.42471428571428 -s 1 -d 2 -p cbr -e 1000 -c 1 -i 23 -a 1 -x {1.0 2.0 23 ------- null}
+ -t 1.42857142857143 -s 1 -d 2 -p cbr -e 1000 -c 1 -i 24 -a 1 -x {1.0 2.0 24 ------- null}
- -t 1.42857142857143 -s 1 -d 2 -p cbr -e 1000 -c 1 -i 24 -a 1 -x {1.0 2.0 24 ------- null}
h -t 1.42857142857143 -s 1 -d 2 -p cbr -e 1000 -c 1 -i 24 -a 1 -x {1.0 2.0 -1 ------- null}
r -t 1.44257142857143 -s 1 -d 2 -p cbr -e 1000 -c 1 -i 24 -a 1 -x {1.0 2.0 24 ------- null}
+ -t 1.44642857142857 -s 1 -d 2 -p cbr -e 1000 -c 1 -i 25 -a 1 -x {1.0 2.0 25 ------- null}
- -t 1.44642857142857 -s 1 -d 2 -p cbr -e 1000 -c 1 -i 25 -a 1 -x {1.0 2.0 25 ------- null}
h -t 1.44642857142857 -s 1 -d 2 -p cbr -e 1000 -c 1 -i 25 -a 1 -x {1.0 2.0 -1 ------- null}
r -t 1.46042857142857 -s 1 -d 2 -p cbr -e 1000 -c 1 -i 25 -a 1 -x {1.0 2.0 25 ------- null}
+ -t 1.46428571428571 -s 1 -d 2 -p cbr -e 1000 -c 1 -i 26 -a 1 -x {1.0 2.0 26 ------- null}
- -t 1.46428571428571 -s 1 -d 2 -p cbr -e 1000 -c 1 -i 26 -a 1 -x {1.0 2.0 26 ------- null}
h -t 1.46428571428571 -s 1 -d 2 -p cbr -e 1000 -c 1 -i 26 -a 1 -x {1.0 2.0 -1 ------- null}
r -t 1.47828571428571 -s 1 -d 2 -p cbr -e 1000 -c 1 -i 26 -a 1 -x {1.0 2.0 26 ------- null}
+ -t 1.48214285714286 -s 1 -d 2 -p cbr -e 1000 -c 1 -i 27 -a 1 -x {1.0 2.0 27 ------- null}
- -t 1.48214285714286 -s 1 -d 2 -p cbr -e 1000 -c 1 -i 27 -a 1 -x {1.0 2.0 27 ------- null}
h -t 1.48214285714286 -s 1 -d 2 -p cbr -e 1000 -c 1 -i 27 -a 1 -x {1.0 2.0 -1 ------- null}
r -t 1.49614285714286 -s 1 -d 2 -p cbr -e 1000 -c 1 -i 27 -a 1 -x {1.0 2.0 27 ------- null}
+ -t 1.5 -s 1 -d 2 -p cbr -e 1000 -c 1 -i 28 -a 1 -x {1.0 2.0 28 ------- null}
- -t 1.5 -s 1 -d 2 -p cbr -e 1000 -c 1 -i 28 -a 1 -x {1.0 2.0 28 ------- null}
h -t 1.5 -s 1 -d 2 -p cbr -e 1000 -c 1 -i 28 -a 1 -x {1.0 2.0 -1 ------- null}
r -t 1.514 -s 1 -d 2 -p cbr -e 1000 -c 1 -i 28 -a 1 -x {1.0 2.0 28 ------- null}
+ -t 1.51785714285714 -s 1 -d 2 -p cbr -e 1000 -c 1 -i 29 -a 1 -x {1.0 2.0 29 ------- null}
- -t 1.51785714285714 -s 1 -d 2 -p cbr -e 1000 -c 1 -i 29 -a 1 -x {1.0 2.0 29 ------- null}
h -t 1.51785714285714 -s 1 -d 2 -p cbr -e 1000 -c 1 -i 29 -a 1 -x {1.0 2.0 -1 ------- null}
r -t 1.53185714285714 -s 1 -d 2 -p cbr -e 1000 -c 1 -i 29 -a 1 -x {1.0 2.0 29 ------- null}
+ -t 1.53571428571428 -s 1 -d 2 -p cbr -e 1000 -c 1 -i 30 -a 1 -x {1.0 2.0 30 ------- null}
- -t 1.53571428571428 -s 1 -d 2 -p cbr -e 1000 -c 1 -i 30 -a 1 -x {1.0 2.0 30 ------- null}
h -t 1.53571428571428 -s 1 -d 2 -p cbr -e 1000 -c 1 -i 30 -a 1 -x {1.0 2.0 -1 ------- null}
r -t 1.54971428571428 -s 1 -d 2 -p cbr -e 1000 -c 1 -i 30 -a 1 -x {1.0 2.0 30 ------- null}
+ -t 1.55357142857143 -s 1 -d 2 -p cbr -e 1000 -c 1 -i 31 -a 1 -x {1.0 2.0 31 ------- null}
- -t 1.55357142857143 -s 1 -d 2 -p cbr -e 1000 -c 1 -i 31 -a 1 -x {1.0 2.0 31 ------- null}
h -t 1.55357142857143 -s 1 -d 2 -p cbr -e 1000 -c 1 -i 31 -a 1 -x {1.0 2.0 -1 ------- null}
r -t 1.56757142857143 -s 1 -d 2 -p cbr -e 1000 -c 1 -i 31 -a 1 -x {1.0 2.0 31 ------- null}
+ -t 1.57142857142857 -s 1 -d 2 -p cbr -e 1000 -c 1 -i 32 -a 1 -x {1.0 2.0 32 ------- null}
- -t 1.57142857142857 -s 1 -d 2 -p cbr -e 1000 -c 1 -i 32 -a 1 -x {1.0 2.0 32 ------- null}
h -t 1.57142857142857 -s 1 -d 2 -p cbr -e 1000 -c 1 -i 32 -a 1 -x {1.0 2.0 -1 ------- null}
r -t 1.58542857142857 -s 1 -d 2 -p cbr -e 1000 -c 1 -i 32 -a 1 -x {1.0 2.0 32 ------- null}
+ -t 1.58928571428571 -s 1 -d 2 -p cbr -e 1000 -c 1 -i 33 -a 1 -x {1.0 2.0 33 ------- null}
- -t 1.58928571428571 -s 1 -d 2 -p cbr -e 1000 -c 1 -i 33 -a 1 -x {1.0 2.0 33 ------- null}
h -t 1.58928571428571 -s 1 -d 2 -p cbr -e 1000 -c 1 -i 33 -a 1 -x {1.0 2.0 -1 ------- null}
r -t 1.60328571428571 -s 1 -d 2 -p cbr -e 1000 -c 1 -i 33 -a 1 -x {1.0 2.0 33 ------- null}
+ -t 1.60714285714285 -s 1 -d 2 -p cbr -e 1000 -c 1 -i 34 -a 1 -x {1.0 2.0 34 ------- null}
- -t 1.60714285714285 -s 1 -d 2 -p cbr -e 1000 -c 1 -i 34 -a 1 -x {1.0 2.0 34 ------- null}
h -t 1.60714285714285 -s 1 -d 2 -p cbr -e 1000 -c 1 -i 34 -a 1 -x {1.0 2.0 -1 ------- null}
r -t 1.62114285714285 -s 1 -d 2 -p cbr -e 1000 -c 1 -i 34 -a 1 -x {1.0 2.0 34 ------- null}
+ -t 1.625 -s 1 -d 2 -p cbr -e 1000 -c 1 -i 35 -a 1 -x {1.0 2.0 35 ------- null}
- -t 1.625 -s 1 -d 2 -p cbr -e 1000 -c 1 -i 35 -a 1 -x {1.0 2.0 35 ------- null}
h -t 1.625 -s 1 -d 2 -p cbr -e 1000 -c 1 -i 35 -a 1 -x {1.0 2.0 -1 ------- null}
r -t 1.639 -s 1 -d 2 -p cbr -e 1000 -c 1 -i 35 -a 1 -x {1.0 2.0 35 ------- null}
+ -t 1.64285714285714 -s 1 -d 2 -p cbr -e 1000 -c 1 -i 36 -a 1 -x {1.0 2.0 36 ------- null}
- -t 1.64285714285714 -s 1 -d 2 -p cbr -e 1000 -c 1 -i 36 -a 1 -x {1.0 2.0 36 ------- null}
h -t 1.64285714285714 -s 1 -d 2 -p cbr -e 1000 -c 1 -i 36 -a 1 -x {1.0 2.0 -1 ------- null}
r -t 1.65685714285714 -s 1 -d 2 -p cbr -e 1000 -c 1 -i 36 -a 1 -x {1.0 2.0 36 ------- null}
+ -t 1.66071428571428 -s 1 -d 2 -p cbr -e 1000 -c 1 -i 37 -a 1 -x {1.0 2.0 37 ------- null}
- -t 1.66071428571428 -s 1 -d 2 -p cbr -e 1000 -c 1 -i 37 -a 1 -x {1.0 2.0 37 ------- null}
h -t 1.66071428571428 -s 1 -d 2 -p cbr -e 1000 -c 1 -i 37 -a 1 -x {1.0 2.0 -1 ------- null}
r -t 1.67471428571428 -s 1 -d 2 -p cbr -e 1000 -c 1 -i 37 -a 1 -x {1.0 2.0 37 ------- null}
+ -t 1.67857142857143 -s 1 -d 2 -p cbr -e 1000 -c 1 -i 38 -a 1 -x {1.0 2.0 38 ------- null}
- -t 1.67857142857143 -s 1 -d 2 -p cbr -e 1000 -c 1 -i 38 -a 1 -x {1.0 2.0 38 ------- null}
h -t 1.67857142857143 -s 1 -d 2 -p cbr -e 1000 -c 1 -i 38 -a 1 -x {1.0 2.0 -1 ------- null}
r -t 1.69257142857143 -s 1 -d 2 -p cbr -e 1000 -c 1 -i 38 -a 1 -x {1.0 2.0 38 ------- null}
+ -t 1.69642857142857 -s 1 -d 2 -p cbr -e 1000 -c 1 -i 39 -a 1 -x {1.0 2.0 39 ------- null}
- -t 1.69642857142857 -s 1 -d 2 -p cbr -e 1000 -c 1 -i 39 -a 1 -x {1.0 2.0 39 ------- null}
h -t 1.69642857142857 -s 1 -d 2 -p cbr -e 1000 -c 1 -i 39 -a 1 -x {1.0 2.0 -1 ------- null}
r -t 1.71042857142857 -s 1 -d 2 -p cbr -e 1000 -c 1 -i 39 -a 1 -x {1.0 2.0 39 ------- null}
+ -t 1.71428571428571 -s 1 -d 2 -p cbr -e 1000 -c 1 -i 40 -a 1 -x {1.0 2.0 40 ------- null}
- -t 1.71428571428571 -s 1 -d 2 -p cbr -e 1000 -c 1 -i 40 -a 1 -x {1.0 2.0 40 ------- null}
h -t 1.71428571428571 -s 1 -d 2 -p cbr -e 1000 -c 1 -i 40 -a 1 -x {1.0 2.0 -1 ------- null}
r -t 1.72828571428571 -s 1 -d 2 -p cbr -e 1000 -c 1 -i 40 -a 1 -x {1.0 2.0 40 ------- null}
+ -t 1.73214285714285 -s 1 -d 2 -p cbr -e 1000 -c 1 -i 41 -a 1 -x {1.0 2.0 41 ------- null}
- -t 1.73214285714285 -s 1 -d 2 -p cbr -e 1000 -c 1 -i 41 -a 1 -x {1.0 2.0 41 ------- null}
h -t 1.73214285714285 -s 1 -d 2 -p cbr -e 1000 -c 1 -i 41 -a 1 -x {1.0 2.0 -1 ------- null}
r -t 1.74614285714285 -s 1 -d 2 -p cbr -e 1000 -c 1 -i 41 -a 1 -x {1.0 2.0 41 ------- null}
+ -t 1.75 -s 1 -d 2 -p cbr -e 1000 -c 1 -i 42 -a 1 -x {1.0 2.0 42 ------- null}
- -t 1.75 -s 1 -d 2 -p cbr -e 1000 -c 1 -i 42 -a 1 -x {1.0 2.0 42 ------- null}
h -t 1.75 -s 1 -d 2 -p cbr -e 1000 -c 1 -i 42 -a 1 -x {1.0 2.0 -1 ------- null}
r -t 1.764 -s 1 -d 2 -p cbr -e 1000 -c 1 -i 42 -a 1 -x {1.0 2.0 42 ------- null}
+ -t 1.76785714285714 -s 1 -d 2 -p cbr -e 1000 -c 1 -i 43 -a 1 -x {1.0 2.0 43 ------- null}
- -t 1.76785714285714 -s 1 -d 2 -p cbr -e 1000 -c 1 -i 43 -a 1 -x {1.0 2.0 43 ------- null}
h -t 1.76785714285714 -s 1 -d 2 -p cbr -e 1000 -c 1 -i 43 -a 1 -x {1.0 2.0 -1 ------- null}
r -t 1.78185714285714 -s 1 -d 2 -p cbr -e 1000 -c 1 -i 43 -a 1 -x {1.0 2.0 43 ------- null}
+ -t 1.78571428571428 -s 1 -d 2 -p cbr -e 1000 -c 1 -i 44 -a 1 -x {1.0 2.0 44 ------- null}
- -t 1.78571428571428 -s 1 -d 2 -p cbr -e 1000 -c 1 -i 44 -a 1 -x {1.0 2.0 44 ------- null}
h -t 1.78571428571428 -s 1 -d 2 -p cbr -e 1000 -c 1 -i 44 -a 1 -x {1.0 2.0 -1 ------- null}
r -t 1.79971428571428 -s 1 -d 2 -p cbr -e 1000 -c 1 -i 44 -a 1 -x {1.0 2.0 44 ------- null}
+ -t 1.80357142857143 -s 1 -d 2 -p cbr -e 1000 -c 1 -i 45 -a 1 -x {1.0 2.0 45 ------- null}
- -t 1.80357142857143 -s 1 -d 2 -p cbr -e 1000 -c 1 -i 45 -a 1 -x {1.0 2.0 45 ------- null}
h -t 1.80357142857143 -s 1 -d 2 -p cbr -e 1000 -c 1 -i 45 -a 1 -x {1.0 2.0 -1 ------- null}
r -t 1.81757142857143 -s 1 -d 2 -p cbr -e 1000 -c 1 -i 45 -a 1 -x {1.0 2.0 45 ------- null}
+ -t 1.82142857142857 -s 1 -d 2 -p cbr -e 1000 -c 1 -i 46 -a 1 -x {1.0 2.0 46 ------- null}
- -t 1.82142857142857 -s 1 -d 2 -p cbr -e 1000 -c 1 -i 46 -a 1 -x {1.0 2.0 46 ------- null}
h -t 1.82142857142857 -s 1 -d 2 -p cbr -e 1000 -c 1 -i 46 -a 1 -x {1.0 2.0 -1 ------- null}
r -t 1.83542857142857 -s 1 -d 2 -p cbr -e 1000 -c 1 -i 46 -a 1 -x {1.0 2.0 46 ------- null}
+ -t 1.83928571428571 -s 1 -d 2 -p cbr -e 1000 -c 1 -i 47 -a 1 -x {1.0 2.0 47 ------- null}
- -t 1.83928571428571 -s 1 -d 2 -p cbr -e 1000 -c 1 -i 47 -a 1 -x {1.0 2.0 47 ------- null}
h -t 1.83928571428571 -s 1 -d 2 -p cbr -e 1000 -c 1 -i 47 -a 1 -x {1.0 2.0 -1 ------- null}
r -t 1.85328571428571 -s 1 -d 2 -p cbr -e 1000 -c 1 -i 47 -a 1 -x {1.0 2.0 47 ------- null}
+ -t 1.85714285714285 -s 1 -d 2 -p cbr -e 1000 -c 1 -i 48 -a 1 -x {1.0 2.0 48 ------- null}
- -t 1.85714285714285 -s 1 -d 2 -p cbr -e 1000 -c 1 -i 48 -a 1 -x {1.0 2.0 48 ------- null}
h -t 1.85714285714285 -s 1 -d 2 -p cbr -e 1000 -c 1 -i 48 -a 1 -x {1.0 2.0 -1 ------- null}
r -t 1.87114285714285 -s 1 -d 2 -p cbr -e 1000 -c 1 -i 48 -a 1 -x {1.0 2.0 48 ------- null}
+ -t 1.875 -s 1 -d 2 -p cbr -e 1000 -c 1 -i 49 -a 1 -x {1.0 2.0 49 ------- null}
- -t 1.875 -s 1 -d 2 -p cbr -e 1000 -c 1 -i 49 -a 1 -x {1.0 2.0 49 ------- null}
h -t 1.875 -s 1 -d 2 -p cbr -e 1000 -c 1 -i 49 -a 1 -x {1.0 2.0 -1 ------- null}
r -t 1.889 -s 1 -d 2 -p cbr -e 1000 -c 1 -i 49 -a 1 -x {1.0 2.0 49 ------- null}
+ -t 1.89285714285714 -s 1 -d 2 -p cbr -e 1000 -c 1 -i 50 -a 1 -x {1.0 2.0 50 ------- null}
- -t 1.89285714285714 -s 1 -d 2 -p cbr -e 1000 -c 1 -i 50 -a 1 -x {1.0 2.0 50 ------- null}
h -t 1.89285714285714 -s 1 -d 2 -p cbr -e 1000 -c 1 -i 50 -a 1 -x {1.0 2.0 -1 ------- null}
r -t 1.90685714285714 -s 1 -d 2 -p cbr -e 1000 -c 1 -i 50 -a 1 -x {1.0 2.0 50 ------- null}
+ -t 1.91071428571428 -s 1 -d 2 -p cbr -e 1000 -c 1 -i 51 -a 1 -x {1.0 2.0 51 ------- null}
- -t 1.91071428571428 -s 1 -d 2 -p cbr -e 1000 -c 1 -i 51 -a 1 -x {1.0 2.0 51 ------- null}
h -t 1.91071428571428 -s 1 -d 2 -p cbr -e 1000 -c 1 -i 51 -a 1 -x {1.0 2.0 -1 ------- null}
r -t 1.92471428571428 -s 1 -d 2 -p cbr -e 1000 -c 1 -i 51 -a 1 -x {1.0 2.0 51 ------- null}
+ -t 1.92857142857143 -s 1 -d 2 -p cbr -e 1000 -c 1 -i 52 -a 1 -x {1.0 2.0 52 ------- null}
- -t 1.92857142857143 -s 1 -d 2 -p cbr -e 1000 -c 1 -i 52 -a 1 -x {1.0 2.0 52 ------- null}
h -t 1.92857142857143 -s 1 -d 2 -p cbr -e 1000 -c 1 -i 52 -a 1 -x {1.0 2.0 -1 ------- null}
r -t 1.94257142857143 -s 1 -d 2 -p cbr -e 1000 -c 1 -i 52 -a 1 -x {1.0 2.0 52 ------- null}
+ -t 1.94642857142857 -s 1 -d 2 -p cbr -e 1000 -c 1 -i 53 -a 1 -x {1.0 2.0 53 ------- null}
- -t 1.94642857142857 -s 1 -d 2 -p cbr -e 1000 -c 1 -i 53 -a 1 -x {1.0 2.0 53 ------- null}
h -t 1.94642857142857 -s 1 -d 2 -p cbr -e 1000 -c 1 -i 53 -a 1 -x {1.0 2.0 -1 ------- null}
r -t 1.96042857142857 -s 1 -d 2 -p cbr -e 1000 -c 1 -i 53 -a 1 -x {1.0 2.0 53 ------- null}
+ -t 1.96428571428571 -s 1 -d 2 -p cbr -e 1000 -c 1 -i 54 -a 1 -x {1.0 2.0 54 ------- null}
- -t 1.96428571428571 -s 1 -d 2 -p cbr -e 1000 -c 1 -i 54 -a 1 -x {1.0 2.0 54 ------- null}
h -t 1.96428571428571 -s 1 -d 2 -p cbr -e 1000 -c 1 -i 54 -a 1 -x {1.0 2.0 -1 ------- null}
r -t 1.97828571428571 -s 1 -d 2 -p cbr -e 1000 -c 1 -i 54 -a 1 -x {1.0 2.0 54 ------- null}
+ -t 1.98214285714285 -s 1 -d 2 -p cbr -e 1000 -c 1 -i 55 -a 1 -x {1.0 2.0 55 ------- null}
- -t 1.98214285714285 -s 1 -d 2 -p cbr -e 1000 -c 1 -i 55 -a 1 -x {1.0 2.0 55 ------- null}
h -t 1.98214285714285 -s 1 -d 2 -p cbr -e 1000 -c 1 -i 55 -a 1 -x {1.0 2.0 -1 ------- null}
r -t 1.99614285714285 -s 1 -d 2 -p cbr -e 1000 -c 1 -i 55 -a 1 -x {1.0 2.0 55 ------- null}
+ -t 2 -s 1 -d 2 -p cbr -e 1000 -c 1 -i 56 -a 1 -x {1.0 2.0 56 ------- null}
- -t 2 -s 1 -d 2 -p cbr -e 1000 -c 1 -i 56 -a 1 -x {1.0 2.0 56 ------- null}
h -t 2 -s 1 -d 2 -p cbr -e 1000 -c 1 -i 56 -a 1 -x {1.0 2.0 -1 ------- null}
+ -t 2 -s 0 -d 2 -p tcp -e 40 -c 1 -i 57 -a 1 -x {0.0 2.0 0 ------- null}
- -t 2 -s 0 -d 2 -p tcp -e 40 -c 1 -i 57 -a 1 -x {0.0 2.0 0 ------- null}
h -t 2 -s 0 -d 2 -p tcp -e 40 -c 1 -i 57 -a 1 -x {0.0 2.0 -1 ------- null}
r -t 2.01016 -s 0 -d 2 -p tcp -e 40 -c 1 -i 57 -a 1 -x {0.0 2.0 0 ------- null}
r -t 2.014 -s 1 -d 2 -p cbr -e 1000 -c 1 -i 56 -a 1 -x {1.0 2.0 56 ------- null}
+ -t 2.01785714285714 -s 1 -d 2 -p cbr -e 1000 -c 1 -i 58 -a 1 -x {1.0 2.0 57 ------- null}
- -t 2.01785714285714 -s 1 -d 2 -p cbr -e 1000 -c 1 -i 58 -a 1 -x {1.0 2.0 57 ------- null}
h -t 2.01785714285714 -s 1 -d 2 -p cbr -e 1000 -c 1 -i 58 -a 1 -x {1.0 2.0 -1 ------- null}
r -t 2.03185714285714 -s 1 -d 2 -p cbr -e 1000 -c 1 -i 58 -a 1 -x {1.0 2.0 57 ------- null}
+ -t 2.03571428571428 -s 1 -d 2 -p cbr -e 1000 -c 1 -i 59 -a 1 -x {1.0 2.0 58 ------- null}
- -t 2.03571428571428 -s 1 -d 2 -p cbr -e 1000 -c 1 -i 59 -a 1 -x {1.0 2.0 58 ------- null}
h -t 2.03571428571428 -s 1 -d 2 -p cbr -e 1000 -c 1 -i 59 -a 1 -x {1.0 2.0 -1 ------- null}
r -t 2.04971428571428 -s 1 -d 2 -p cbr -e 1000 -c 1 -i 59 -a 1 -x {1.0 2.0 58 ------- null}
+ -t 2.05357142857142 -s 1 -d 2 -p cbr -e 1000 -c 1 -i 60 -a 1 -x {1.0 2.0 59 ------- null}
- -t 2.05357142857142 -s 1 -d 2 -p cbr -e 1000 -c 1 -i 60 -a 1 -x {1.0 2.0 59 ------- null}
h -t 2.05357142857142 -s 1 -d 2 -p cbr -e 1000 -c 1 -i 60 -a 1 -x {1.0 2.0 -1 ------- null}
r -t 2.06757142857142 -s 1 -d 2 -p cbr -e 1000 -c 1 -i 60 -a 1 -x {1.0 2.0 59 ------- null}
+ -t 2.07142857142857 -s 1 -d 2 -p cbr -e 1000 -c 1 -i 61 -a 1 -x {1.0 2.0 60 ------- null}
- -t 2.07142857142857 -s 1 -d 2 -p cbr -e 1000 -c 1 -i 61 -a 1 -x {1.0 2.0 60 ------- null}
h -t 2.07142857142857 -s 1 -d 2 -p cbr -e 1000 -c 1 -i 61 -a 1 -x {1.0 2.0 -1 ------- null}
r -t 2.08542857142857 -s 1 -d 2 -p cbr -e 1000 -c 1 -i 61 -a 1 -x {1.0 2.0 60 ------- null}
+ -t 2.08928571428571 -s 1 -d 2 -p cbr -e 1000 -c 1 -i 62 -a 1 -x {1.0 2.0 61 ------- null}
- -t 2.08928571428571 -s 1 -d 2 -p cbr -e 1000 -c 1 -i 62 -a 1 -x {1.0 2.0 61 ------- null}
h -t 2.08928571428571 -s 1 -d 2 -p cbr -e 1000 -c 1 -i 62 -a 1 -x {1.0 2.0 -1 ------- null}
r -t 2.10328571428571 -s 1 -d 2 -p cbr -e 1000 -c 1 -i 62 -a 1 -x {1.0 2.0 61 ------- null}
+ -t 2.10714285714285 -s 1 -d 2 -p cbr -e 1000 -c 1 -i 63 -a 1 -x {1.0 2.0 62 ------- null}
- -t 2.10714285714285 -s 1 -d 2 -p cbr -e 1000 -c 1 -i 63 -a 1 -x {1.0 2.0 62 ------- null}
h -t 2.10714285714285 -s 1 -d 2 -p cbr -e 1000 -c 1 -i 63 -a 1 -x {1.0 2.0 -1 ------- null}
r -t 2.12114285714285 -s 1 -d 2 -p cbr -e 1000 -c 1 -i 63 -a 1 -x {1.0 2.0 62 ------- null}
+ -t 2.125 -s 1 -d 2 -p cbr -e 1000 -c 1 -i 64 -a 1 -x {1.0 2.0 63 ------- null}
- -t 2.125 -s 1 -d 2 -p cbr -e 1000 -c 1 -i 64 -a 1 -x {1.0 2.0 63 ------- null}
h -t 2.125 -s 1 -d 2 -p cbr -e 1000 -c 1 -i 64 -a 1 -x {1.0 2.0 -1 ------- null}
r -t 2.139 -s 1 -d 2 -p cbr -e 1000 -c 1 -i 64 -a 1 -x {1.0 2.0 63 ------- null}
+ -t 2.14285714285714 -s 1 -d 2 -p cbr -e 1000 -c 1 -i 65 -a 1 -x {1.0 2.0 64 ------- null}
- -t 2.14285714285714 -s 1 -d 2 -p cbr -e 1000 -c 1 -i 65 -a 1 -x {1.0 2.0 64 ------- null}
h -t 2.14285714285714 -s 1 -d 2 -p cbr -e 1000 -c 1 -i 65 -a 1 -x {1.0 2.0 -1 ------- null}
r -t 2.15685714285714 -s 1 -d 2 -p cbr -e 1000 -c 1 -i 65 -a 1 -x {1.0 2.0 64 ------- null}
+ -t 2.16071428571428 -s 1 -d 2 -p cbr -e 1000 -c 1 -i 66 -a 1 -x {1.0 2.0 65 ------- null}
- -t 2.16071428571428 -s 1 -d 2 -p cbr -e 1000 -c 1 -i 66 -a 1 -x {1.0 2.0 65 ------- null}
h -t 2.16071428571428 -s 1 -d 2 -p cbr -e 1000 -c 1 -i 66 -a 1 -x {1.0 2.0 -1 ------- null}
r -t 2.17471428571428 -s 1 -d 2 -p cbr -e 1000 -c 1 -i 66 -a 1 -x {1.0 2.0 65 ------- null}
+ -t 2.17857142857142 -s 1 -d 2 -p cbr -e 1000 -c 1 -i 67 -a 1 -x {1.0 2.0 66 ------- null}
- -t 2.17857142857142 -s 1 -d 2 -p cbr -e 1000 -c 1 -i 67 -a 1 -x {1.0 2.0 66 ------- null}
h -t 2.17857142857142 -s 1 -d 2 -p cbr -e 1000 -c 1 -i 67 -a 1 -x {1.0 2.0 -1 ------- null}
r -t 2.19257142857142 -s 1 -d 2 -p cbr -e 1000 -c 1 -i 67 -a 1 -x {1.0 2.0 66 ------- null}
+ -t 2.19642857142857 -s 1 -d 2 -p cbr -e 1000 -c 1 -i 68 -a 1 -x {1.0 2.0 67 ------- null}
- -t 2.19642857142857 -s 1 -d 2 -p cbr -e 1000 -c 1 -i 68 -a 1 -x {1.0 2.0 67 ------- null}
h -t 2.19642857142857 -s 1 -d 2 -p cbr -e 1000 -c 1 -i 68 -a 1 -x {1.0 2.0 -1 ------- null}
r -t 2.21042857142857 -s 1 -d 2 -p cbr -e 1000 -c 1 -i 68 -a 1 -x {1.0 2.0 67 ------- null}
+ -t 2.21428571428571 -s 1 -d 2 -p cbr -e 1000 -c 1 -i 69 -a 1 -x {1.0 2.0 68 ------- null}
- -t 2.21428571428571 -s 1 -d 2 -p cbr -e 1000 -c 1 -i 69 -a 1 -x {1.0 2.0 68 ------- null}
h -t 2.21428571428571 -s 1 -d 2 -p cbr -e 1000 -c 1 -i 69 -a 1 -x {1.0 2.0 -1 ------- null}
r -t 2.22828571428571 -s 1 -d 2 -p cbr -e 1000 -c 1 -i 69 -a 1 -x {1.0 2.0 68 ------- null}
+ -t 2.23214285714285 -s 1 -d 2 -p cbr -e 1000 -c 1 -i 70 -a 1 -x {1.0 2.0 69 ------- null}
- -t 2.23214285714285 -s 1 -d 2 -p cbr -e 1000 -c 1 -i 70 -a 1 -x {1.0 2.0 69 ------- null}
h -t 2.23214285714285 -s 1 -d 2 -p cbr -e 1000 -c 1 -i 70 -a 1 -x {1.0 2.0 -1 ------- null}
r -t 2.24614285714285 -s 1 -d 2 -p cbr -e 1000 -c 1 -i 70 -a 1 -x {1.0 2.0 69 ------- null}
+ -t 2.25 -s 1 -d 2 -p cbr -e 1000 -c 1 -i 71 -a 1 -x {1.0 2.0 70 ------- null}
- -t 2.25 -s 1 -d 2 -p cbr -e 1000 -c 1 -i 71 -a 1 -x {1.0 2.0 70 ------- null}
h -t 2.25 -s 1 -d 2 -p cbr -e 1000 -c 1 -i 71 -a 1 -x {1.0 2.0 -1 ------- null}
r -t 2.264 -s 1 -d 2 -p cbr -e 1000 -c 1 -i 71 -a 1 -x {1.0 2.0 70 ------- null}
+ -t 2.26785714285714 -s 1 -d 2 -p cbr -e 1000 -c 1 -i 72 -a 1 -x {1.0 2.0 71 ------- null}
- -t 2.26785714285714 -s 1 -d 2 -p cbr -e 1000 -c 1 -i 72 -a 1 -x {1.0 2.0 71 ------- null}
h -t 2.26785714285714 -s 1 -d 2 -p cbr -e 1000 -c 1 -i 72 -a 1 -x {1.0 2.0 -1 ------- null}
r -t 2.28185714285714 -s 1 -d 2 -p cbr -e 1000 -c 1 -i 72 -a 1 -x {1.0 2.0 71 ------- null}
+ -t 2.28571428571428 -s 1 -d 2 -p cbr -e 1000 -c 1 -i 73 -a 1 -x {1.0 2.0 72 ------- null}
- -t 2.28571428571428 -s 1 -d 2 -p cbr -e 1000 -c 1 -i 73 -a 1 -x {1.0 2.0 72 ------- null}
h -t 2.28571428571428 -s 1 -d 2 -p cbr -e 1000 -c 1 -i 73 -a 1 -x {1.0 2.0 -1 ------- null}
r -t 2.29971428571428 -s 1 -d 2 -p cbr -e 1000 -c 1 -i 73 -a 1 -x {1.0 2.0 72 ------- null}
+ -t 2.30357142857142 -s 1 -d 2 -p cbr -e 1000 -c 1 -i 74 -a 1 -x {1.0 2.0 73 ------- null}
- -t 2.30357142857142 -s 1 -d 2 -p cbr -e 1000 -c 1 -i 74 -a 1 -x {1.0 2.0 73 ------- null}
h -t 2.30357142857142 -s 1 -d 2 -p cbr -e 1000 -c 1 -i 74 -a 1 -x {1.0 2.0 -1 ------- null}
r -t 2.31757142857142 -s 1 -d 2 -p cbr -e 1000 -c 1 -i 74 -a 1 -x {1.0 2.0 73 ------- null}
+ -t 2.32142857142857 -s 1 -d 2 -p cbr -e 1000 -c 1 -i 75 -a 1 -x {1.0 2.0 74 ------- null}
- -t 2.32142857142857 -s 1 -d 2 -p cbr -e 1000 -c 1 -i 75 -a 1 -x {1.0 2.0 74 ------- null}
h -t 2.32142857142857 -s 1 -d 2 -p cbr -e 1000 -c 1 -i 75 -a 1 -x {1.0 2.0 -1 ------- null}
r -t 2.33542857142857 -s 1 -d 2 -p cbr -e 1000 -c 1 -i 75 -a 1 -x {1.0 2.0 74 ------- null}
+ -t 2.33928571428571 -s 1 -d 2 -p cbr -e 1000 -c 1 -i 76 -a 1 -x {1.0 2.0 75 ------- null}
- -t 2.33928571428571 -s 1 -d 2 -p cbr -e 1000 -c 1 -i 76 -a 1 -x {1.0 2.0 75 ------- null}
h -t 2.33928571428571 -s 1 -d 2 -p cbr -e 1000 -c 1 -i 76 -a 1 -x {1.0 2.0 -1 ------- null}
r -t 2.35328571428571 -s 1 -d 2 -p cbr -e 1000 -c 1 -i 76 -a 1 -x {1.0 2.0 75 ------- null}
+ -t 2.35714285714285 -s 1 -d 2 -p cbr -e 1000 -c 1 -i 77 -a 1 -x {1.0 2.0 76 ------- null}
- -t 2.35714285714285 -s 1 -d 2 -p cbr -e 1000 -c 1 -i 77 -a 1 -x {1.0 2.0 76 ------- null}
h -t 2.35714285714285 -s 1 -d 2 -p cbr -e 1000 -c 1 -i 77 -a 1 -x {1.0 2.0 -1 ------- null}
r -t 2.37114285714285 -s 1 -d 2 -p cbr -e 1000 -c 1 -i 77 -a 1 -x {1.0 2.0 76 ------- null}
+ -t 2.375 -s 1 -d 2 -p cbr -e 1000 -c 1 -i 78 -a 1 -x {1.0 2.0 77 ------- null}
- -t 2.375 -s 1 -d 2 -p cbr -e 1000 -c 1 -i 78 -a 1 -x {1.0 2.0 77 ------- null}
h -t 2.375 -s 1 -d 2 -p cbr -e 1000 -c 1 -i 78 -a 1 -x {1.0 2.0 -1 ------- null}
r -t 2.38899999999999 -s 1 -d 2 -p cbr -e 1000 -c 1 -i 78 -a 1 -x {1.0 2.0 77 ------- null}
+ -t 2.39285714285714 -s 1 -d 2 -p cbr -e 1000 -c 1 -i 79 -a 1 -x {1.0 2.0 78 ------- null}
- -t 2.39285714285714 -s 1 -d 2 -p cbr -e 1000 -c 1 -i 79 -a 1 -x {1.0 2.0 78 ------- null}
h -t 2.39285714285714 -s 1 -d 2 -p cbr -e 1000 -c 1 -i 79 -a 1 -x {1.0 2.0 -1 ------- null}
r -t 2.40685714285714 -s 1 -d 2 -p cbr -e 1000 -c 1 -i 79 -a 1 -x {1.0 2.0 78 ------- null}
+ -t 2.41071428571428 -s 1 -d 2 -p cbr -e 1000 -c 1 -i 80 -a 1 -x {1.0 2.0 79 ------- null}
- -t 2.41071428571428 -s 1 -d 2 -p cbr -e 1000 -c 1 -i 80 -a 1 -x {1.0 2.0 79 ------- null}
h -t 2.41071428571428 -s 1 -d 2 -p cbr -e 1000 -c 1 -i 80 -a 1 -x {1.0 2.0 -1 ------- null}
r -t 2.42471428571428 -s 1 -d 2 -p cbr -e 1000 -c 1 -i 80 -a 1 -x {1.0 2.0 79 ------- null}
+ -t 2.42857142857142 -s 1 -d 2 -p cbr -e 1000 -c 1 -i 81 -a 1 -x {1.0 2.0 80 ------- null}
- -t 2.42857142857142 -s 1 -d 2 -p cbr -e 1000 -c 1 -i 81 -a 1 -x {1.0 2.0 80 ------- null}
h -t 2.42857142857142 -s 1 -d 2 -p cbr -e 1000 -c 1 -i 81 -a 1 -x {1.0 2.0 -1 ------- null}
r -t 2.44257142857142 -s 1 -d 2 -p cbr -e 1000 -c 1 -i 81 -a 1 -x {1.0 2.0 80 ------- null}